<?xml version="1.0"?>
<VTKFile type="UnstructuredGrid"  version="0.1"  >
<UnstructuredGrid>
<Piece  NumberOfPoints="106" NumberOfCells="208">
<Points>
<DataArray  type="Float64"  NumberOfComponents="3"  format="ascii">-0.09507602582174701 0.6615173516648786 -0.7369942728964761  -0.1747024138153818 0.8765077424788057 -0.4423483918465237  -0.382119823153336 0.6349946229360968 -0.6625644302180497  0.1543033499620919 0.7715167498104595 -0.6172133998483676  -0.3279447437949838 0.3921622050979096 -0.8519648750341244  0.3430115367031762 0.4903506134222567 -0.7981331985943925  -0.02088867731818275 0.4246155666551548 -0.9013450556390949  -0.567346506658303 0.7401168877123976 -0.3398973585875643  0.2523996735007873 0.9099756420886684 -0.3157512891464032  0.1053685829501294 0.9932879611995235 -0.01390021058703205  -0.337064333866143 0.9314215197928684 -0.09526229857527192  -0.6283468485142462 0.4513478896535215 -0.6184484736074287  0.4865255175444956 -0.5877201250471686 0.6332800574599544  0.2907948641190167 -0.8117394808483287 0.4991954202904964  0.578653375292029 -0.7331690262088473 0.3365545118019801  0.1868115831231177 -0.6183874913843553 0.758599331892884  0.7160135746355412 -0.3611582456531959 0.5834925404818545  0.3265907016802203 -0.2947378393202663 0.8948268538361053  0.4172169765804332 -0.8964648966336535 0.1287513461456062  0.1339895231936908 -0.9600327190633366 0.2366899832649614  -0.00276364677941174 -0.7990937678344749 0.594697839300079  0.676795426172335 -0.7271475220968825 0.0621890866881006  0.8189149274800351 -0.4917967082878002 0.2811707316699085  -0.2066637701445255 -0.629453732469788 -0.7425949270392639  0.003194514623299641 -0.3911815613507525 -0.9198826721370826  0.1244702290943775 -0.6119916664629828 -0.7775927103463103  -0.2467379600121573 -0.2459093685297896 -0.9317604994699668  -0.005839028514115035 -0.825373396332608 -0.5624161200209543  -0.3195783972306087 -0.8247792364931082 -0.4605314510263803  -0.5144957554275266 -0.5144957554275266 -0.6859943405700354  0.2842720662071324 -0.3260992575027143 -0.8981792533272845  0.1410337569844838 -0.02054428634326812 -0.9872362988913859  0.7976028236434856 -0.5757380216615469 -0.1555842887618206  0.5177804364948301 -0.83404120611531 -0.1574298572477865  0.6859943405700355 -0.5144957554275265 -0.5144957554275266  0.9087560273694272 -0.3151282113089306 -0.2589649164627145  0.9530475523783848 -0.2869915669251168 0.03803113096821982  0.3165520304207733 -0.8075716196657398 -0.4948858886351385  0.2694585245968092 -0.9553025178812261 -0.1035723205595598  0.9023372788425337 -0.05944383923481791 -0.4187909583920988  0.7491813278048673 0.03036730504191571 -0.6535551283255709  0.5685601264059239 -0.1470285815307277 -0.8037006693562947  0.4314615721118877 -0.5419957887633724 -0.709898878298083  0.5444691689964349 0.6700624872789989 -0.4953468463754892  0.5213880844444476 0.8388472958746197 -0.1101809827438017  -0.6685428632060335 -0.6745933107217463 0.3016527692680102  -0.25273125179178 -0.9598829229747123 0.09720432633753646  -0.5714771050036457 -0.8064332933533983 -0.1122318714937552  -0.2898287683793639 -0.8223911826599377 0.4828583478917725  -0.80228570097936 -0.5882182331643903 0.03799631515318089  -0.5165181390205014 -0.6383647284112617 0.5601029839933254  -0.6651947767550509 -0.379158487235113 0.6345357722626853  -0.8553829927448371 -0.3107010048569314 0.4007524776531869  -0.250420371403006 -0.9426373522943475 -0.198132488013091  0.03759764057587909 -0.9610920665925597 -0.2631834840311497  -0.8196647666378635 -0.5004474108806704 -0.2567184237174494  -0.5996466373805417 -0.6715667635695196 -0.4180482020506339  0.8037229444920122 0.4468406912765127 -0.3771259620147586  0.9729598572627933 0.1062017415640588 -0.1863653117698974  0.4240204002156152 0.159601609966867 -0.8889852127654569  0.6605844606054292 0.3098073896489497 -0.6800284487890002  0.9908312881762129 0.05338944019466318 0.1023199164802615  0.915981150171912 -0.2199121507964105 0.3189116682900975  -0.3217950453819718 -0.5410239170918703 0.7694548974954463  0.04397554200074902 -0.4005533176508363 0.9119175424285846  -0.883307162378454 -0.1315941993960358 -0.4464492680086057  -0.9176124846775875 0.1565341362920522 -0.3513139924777337  -0.7660808396001972 0.1732850090686099 -0.6152126689981511  -0.9938432238227229 -0.006002281343279714 -0.1050301521236974  -0.6532463371291518 -0.1777097524593695 -0.7282412258100334  -0.7434847440290154 -0.3885559691201209 -0.5288259001008457  -0.8116124866253669 0.4417773028655746 -0.3682041968549496  -0.8740441296012581 0.471158538038935 -0.05811978838848277  -0.49197426311762 0.1259744598119463 -0.8556325614316451  -0.948972594430384 0.2578418047529875 0.1650281532501137  -0.786363541251266 0.4778549021877085 0.3763432246644403  -0.7107040663721065 0.6852843560817751 0.1103541419116131  -0.8638498970747067 -0.01627331724160226 0.4943113443092518  -0.9729291680329647 -0.03981334406088554 0.2131741503071686  -0.6666666666666666 0.3333333333333334 0.6666666666666667  -0.3829522779500957 0.7915997957170873 0.4621268897854213  -0.9375915495868972 -0.3192671026682933 0.1029589445070819  0.4731387732793517 0.8431871643725164 0.2327679783816012  0.7440714759183148 0.6462654407163269 0.1445742948407661  0.7451606330478747 0.6429210239392649 -0.1563991316320438  0.9269067501053606 0.361337843173551 -0.04768449404326208  -0.3656993218622729 0.5302804799716924 0.7548075000423888  -0.3352076149232284 0.1976350191648243 0.9146686301781886  -0.6138521634717397 -0.02620022273023675 0.7819807217698904  0.03381302153508584 0.428600813652856 0.8984611935882096  -0.06412891747899024 0.7294913286284403 0.6741312538894682  0.3363480570122512 0.623037938062916 0.6988598780324019  -0.1140888733290792 0.05287219537336581 0.9900727445247017  0.1599255380789656 0.03277644689459415 0.9831577802862141  0.3719202281495274 0.3080023766918378 0.8696712949210605  0.1844724900841709 0.8841725143537293 0.41972465372826  -0.1321795748683079 0.9559030648819431 0.2577834343149314  -0.1700216048173334 0.1242386601794148 -0.9748562128322604  -0.4618387547129842 -0.2816708770629475 0.8354780193963278  -0.1865863525237375 -0.2098892908739766 0.9549149523279958  0.6856687039346594 0.5194691206684228 0.5080130443965039  0.71639636477364 0.2235482501923981 0.6509075022742958  0.8847039550508484 0.3515930713233998 0.2894783427059117  0.8933862461702693 0.04535244208273272 0.4367743365304947  0.5547002057625487 0 0.8320502879796305  -0.4671493195696018 0.8618652227087453 0.1747006856949914  </DataArray>
</Points>
<Cells>
<DataArray  type="UInt32"  Name="connectivity"  format="ascii">0 1 2  0 1 3  0 2 4  0 3 5  0 4 6  0 5 6  1 2 7  1 3 8  1 8 9  1 9 10  1 7 10  2 4 11  2 7 11  12 13 14  12 13 15  12 14 16  12 15 17  12 16 17  13 14 18  13 18 19  13 15 20  13 19 20  14 18 21  14 21 22  14 16 22  23 24 25  23 24 26  23 25 27  23 28 29  23 27 28  23 26 29  24 25 30  24 30 31  24 26 31  32 33 34  21 32 33  32 34 35  21 22 32  32 35 36  22 32 36  33 34 37  18 21 33  18 33 38  33 37 38  34 39 40  34 35 39  34 40 41  34 41 42  34 37 42  18 19 38  3 8 43  8 9 44  8 43 44  3 5 43  45 46 47  45 46 48  45 47 49  45 50 51  45 48 50  45 49 52  45 51 52  46 47 53  19 46 54  19 46 48  46 53 54  47 55 56  47 49 55  28 47 56  28 47 53  39 40 57  39 57 58  35 39 58  40 41 59  40 59 60  40 57 60  31 41 59  30 41 42  30 31 41  6 31 59  5 6 59  5 59 60  35 36 58  36 58 61  36 61 62  22 36 62  15 20 63  15 63 64  15 17 64  19 20 48  19 38 54  25 30 42  25 37 42  65 66 67  65 66 68  65 67 69  55 65 68  55 65 70  65 69 70  66 67 71  66 71 72  66 68 72  11 67 71  67 69 73  11 67 73  20 48 63  25 27 37  7 71 72  72 74 75  68 72 74  72 75 76  7 72 76  7 11 71  74 75 77  68 74 78  74 77 78  75 77 79  75 79 80  75 76 80  55 56 70  55 68 81  49 55 81  29 56 70  28 29 56  9 44 82  44 82 83  44 83 84  43 44 84  57 58 85  57 84 85  43 57 84  43 57 60  79 86 87  79 80 86  79 87 88  77 79 88  86 89 90  86 87 89  89 90 91  87 89 92  89 93 94  89 92 93  89 91 94  80 86 90  90 91 95  90 95 96  80 90 96  4 6 97  6 31 97  4 11 73  4 73 97  50 51 63  48 50 63  37 38 54  27 37 54  87 88 98  87 98 99  87 92 99  51 77 88  51 88 98  9 82 95  9 95 96  82 91 95  9 10 96  82 91 100  82 83 100  63 64 99  63 98 99  64 93 99  92 93 99  51 63 98  17 64 93  101 102 103  100 101 102  101 103 104  94 100 101  94 101 104  61 102 103  83 100 102  83 85 102  61 85 102  61 62 103  16 62 103  16 103 104  68 78 81  17 93 104  93 94 104  16 17 104  29 69 70  51 52 77  52 77 78  91 94 100  49 52 81  52 78 81  26 69 73  26 29 69  28 53 54  27 28 54  76 80 105  80 96 105  83 84 85  58 61 85  7 10 76  10 76 105  5 43 60  26 73 97  10 96 105  16 22 62  26 31 97  </DataArray>
<DataArray  type="UInt32"  Name="offsets"  format="ascii">3 6 9 12 15 18 21 24 27 30 33 36 39 42 45 48 51 54 57 60 63 66 69 72 75 78 81 84 87 90 93 96 99 102 105 108 111 114 117 120 123 126 129 132 135 138 141 144 147 150 153 156 159 162 165 168 171 174 177 180 183 186 189 192 195 198 201 204 207 210 213 216 219 222 225 228 231 234 237 240 243 246 249 252 255 258 261 264 267 270 273 276 279 282 285 288 291 294 297 300 303 306 309 312 315 318 321 324 327 330 333 336 339 342 345 348 351 354 357 360 363 366 369 372 375 378 381 384 387 390 393 396 399 402 405 408 411 414 417 420 423 426 429 432 435 438 441 444 447 450 453 456 459 462 465 468 471 474 477 480 483 486 489 492 495 498 501 504 507 510 513 516 519 522 525 528 531 534 537 540 543 546 549 552 555 558 561 564 567 570 573 576 579 582 585 588 591 594 597 600 603 606 609 612 615 618 621 624 </DataArray>
<DataArray  type="UInt8"  Name="types"  format="ascii">5 5 5 5 5 5 5 5 5 5 5 5 5 5 5 5 5 5 5 5 5 5 5 5 5 5 5 5 5 5 5 5 5 5 5 5 5 5 5 5 5 5 5 5 5 5 5 5 5 5 5 5 5 5 5 5 5 5 5 5 5 5 5 5 5 5 5 5 5 5 5 5 5 5 5 5 5 5 5 5 5 5 5 5 5 5 5 5 5 5 5 5 5 5 5 5 5 5 5 5 5 5 5 5 5 5 5 5 5 5 5 5 5 5 5 5 5 5 5 5 5 5 5 5 5 5 5 5 5 5 5 5 5 5 5 5 5 5 5 5 5 5 5 5 5 5 5 5 5 5 5 5 5 5 5 5 5 5 5 5 5 5 5 5 5 5 5 5 5 5 5 5 5 5 5 5 5 5 5 5 5 5 5 5 5 5 5 5 5 5 5 5 5 5 5 5 5 5 5 5 5 5 5 5 5 5 5 5 </DataArray>
</Cells>
<PointData  Scalars="f_48"> 
<DataArray  type="Float64"  Name="f_48"  format="ascii">7.7898772741795028e+01  7.6019552675908741e+01  8.0708590704021688e+01  8.0070760295776196e+01  8.2632593641634571e+01  6.8522146639511845e+01  7.5550078952206931e+01  7.8806061300436710e+01  9.1999909766662569e+01  8.4861747124673840e+01  7.1879960520855008e+01  8.2909095742862050e+01  8.3923285049482800e+01  8.3675127755107951e+01  8.2852583280482634e+01  8.1239506676614155e+01  8.6867247501708903e+01  8.2999918593836867e+01  7.9311344263952861e+01  9.1999909766662569e+01  7.8389755265606951e+01  8.1802050043608787e+01  8.6222273511925678e+01  7.1857277874262536e+01  5.8916196139687678e+01  5.0999949979345544e+01  7.6405884513267296e+01  6.4983135729961276e+01  7.4388097242175036e+01  8.2777442056663332e+01  6.3317961020419602e+01  5.9344516981636851e+01  8.1712059559376527e+01  7.7033320511468133e+01  7.5401128342024094e+01  8.2857680287710210e+01  8.9999911728256833e+01  6.8743081695748785e+01  7.7712285004324485e+01  8.0299384425744748e+01  7.4243480552572720e+01  6.8551700002563919e+01  6.9347507695758068e+01  7.8014719876321081e+01  8.8207665548145627e+01  7.8836423493758289e+01  6.9933745356346961e+01  8.1099317718190775e+01  6.5917711041520221e+01  8.8836343335215957e+01  7.0820447140465660e+01  7.2534916589649455e+01  7.9362960795310258e+01  7.2279317689224058e+01  7.2089545866921824e+01  1.0599989603550250e+02  8.5405889758307353e+01  8.1837020663006840e+01  8.4927566102807674e+01  5.3999947036954111e+01  7.2055488429208012e+01  8.8434699214372401e+01  8.8589757486694140e+01  6.0989556721049041e+01  7.4227528527354934e+01  9.1011869674450082e+01  8.7310451636637524e+01  8.5999811055201391e+01  8.9999911728256833e+01  8.6642905210625443e+01  9.1654506403334864e+01  8.3234856581151732e+01  8.0698135308396573e+01  8.3733980864556585e+01  8.0732674192198047e+01  7.3960144768084604e+01  7.5182797595132129e+01  7.6169185485737188e+01  8.2751024367139422e+01  6.8228232530952781e+01  6.1463462680226179e+01  8.7248527585730415e+01  8.9340909958098067e+01  1.0599989603550250e+02  8.9799835563557252e+01  8.8234853406855308e+01  5.0999949979345544e+01  5.9148196067022042e+01  6.8626147612475165e+01  7.2382566325790478e+01  7.1376323075257531e+01  8.6276334345533883e+01  6.1321933602876925e+01  8.4991843475205656e+01  8.7985519672034755e+01  8.3599407211925552e+01  7.2932412085125748e+01  8.2999918593836867e+01  6.4595882144401571e+01  5.3999947036954111e+01  9.3387135772770506e+01  9.0410701248608106e+01  9.2190670922829227e+01  8.9719413226833368e+01  8.8036689009991065e+01  6.8630504942059858e+01  </DataArray> 
</PointData> 
</Piece>
</UnstructuredGrid>
</VTKFile>