<?xml version="1.0"?>
<VTKFile type="UnstructuredGrid"  version="0.1"  >
<UnstructuredGrid>
<Piece  NumberOfPoints="4161" NumberOfCells="8318">
<Points>
<DataArray  type="Float64"  NumberOfComponents="3"  format="ascii">0.845651045622126 0.1742862642430165 -0.4927754992340047  0.8176958930642908 0.2179026476455752 -0.5191401570346659  0.8265603284243492 0.143459766383125 -0.5336729961748137  0.8570117811984341 0.2162319018386789 -0.4575420516965971  0.8408319372050967 0.1092088150884166 -0.5184958124104624  0.8667436315624142 0.1455113834463278 -0.470630823455635  0.7940721229369815 0.1932055566674042 -0.5661608526780186  0.7847622657223384 0.2550478606762733 -0.5529144910288273  0.8158796548118012 0.272742617703343 -0.4999502221918857  0.7980640867952349 0.135744907959787 -0.5796705926552586  0.8231613244219453 0.09132293298679661 -0.5497207712433392  0.3638937161977054 0.9223861696788718 0.08113092411183397  0.3163215538106726 0.9367839037039229 0.1216186897981215  0.3542382367890677 0.9157186757403535 0.1599980493136741  0.3181302811442476 0.9418403896917218 0.05090585327040397  0.3984237518459641 0.9042993726393749 0.1243380760956424  0.381151910010872 0.9214629474200313 0.02556460357017983  0.4196792499401591 0.9013913556125478 0.06772788235507164  0.3094368934935695 0.9250490618306396 0.1954970274453103  0.2730520192622934 0.9553410947152039 0.08115133527916482  0.2772953904502168 0.9517740651846895 0.1195184287279383  0.2790985092751127 0.945117862937791 0.1576656107020849  0.414800832858938 0.8828950897490331 0.1964713850960353  0.3771880293906122 0.895858674570815 0.2096680793211173  0.2643813447602458 -0.8606830730566999 -0.4189713901723509  0.3128700371777803 -0.85083270727518 -0.4090989060305217  0.3042505239805116 -0.8319072895269148 -0.4550682599178502  0.2696409386215665 -0.8851308816262932 -0.3633366662723181  0.2448859501140476 -0.8303715011544905 -0.4883914441271675  0.2086210144028038 -0.8660306439539363 -0.4431120243562822  0.2280221305614455 -0.8763961781549163 -0.4085682603523196  0.3524426837102075 -0.8473258255546753 -0.3779965529275707  0.3663984919065274 -0.81893340178448 -0.4272775550881875  0.3207458469468379 -0.8769932086039062 -0.3436169359561165  0.3297289795177815 -0.9274595398990078 -0.1495571540822049  0.2692946272442636 -0.9502780150829997 -0.1482831905053637  0.2712855642804773 -0.9551940958650771 -0.09447095749566418  0.3107987447664899 -0.9254998825038102 -0.1911133181027715  0.3395100319085376 -0.9314560663336771 -0.08581567999959896  0.3839604959819175 -0.9079686442647086 -0.1433785245641754  0.3649937786553938 -0.9031537183302225 -0.197933157506294  0.2219892517212232 -0.9644156004977329 -0.1195921329328102  0.2676476950374913 -0.9380683708273632 -0.1994276924927063  0.2215603037916208 -0.9540290133648646 -0.1793809207852365  0.2910962727271471 -0.9513151042704964 -0.04430745126774501  0.2291010306185261 -0.9676675185361885 -0.0630262926283172  0.7523925337877684 -0.5758808237059235 -0.2939582971048034  0.7541790458721438 -0.5985125199220278 -0.2410243439335219  0.7913501811188036 -0.5566272056411554 -0.2275589865505143  0.7010925476962697 -0.6452200035415525 -0.2856218739257743  0.7382184486830664 -0.5610877974379092 -0.3522928470132944  0.7017114457833247 -0.6182486071335931 -0.3379317752746033  0.7794781050622224 -0.5168413789284985 -0.3395432104572277  0.7930654289282021 -0.5297066446460794 -0.2818654671071273  0.6765240484117399 0.7019199516801797 -0.1875458593347852  0.691620292539282 0.6992462199596789 -0.1413675651571569  0.6466845491705926 0.7388994326151426 -0.1644710530786995  0.7177529225516966 0.661167880662148 -0.1860049394651668  0.6640858970836034 0.6998171432237246 -0.2345389531822963  0.6953617237796024 0.672580722045427 -0.2214845079879272  0.6720897212223629 0.7277210893623363 -0.08720938888917919  0.7444870957280449 0.6517203894923034 -0.1090277058060255  0.7107371994856884 0.6890181061453382 -0.08754547418462949  0.6027266189396717 0.7652472053218584 -0.2020771328725493  0.6319211819278391 0.7628289904757919 -0.09830299771642155  0.5943025639706925 0.7898283149460176 -0.1270261675903318  -0.4444787603869684 0.7973364814741695 0.3906099450390363  -0.4409980196356909 0.8194592642504029 0.3515068041728476  -0.3878901699972953 0.8326383247548849 0.3752616913255476  -0.4820770207911236 0.8043678531314109 0.3407665213994504  -0.3912529978861213 0.8017086540424979 0.4362215506722805  -0.4993318032968228 0.7687656006013102 0.384136823848634  -0.4669992026614123 0.7654000229971425 0.4237069791655148  -0.4134939132985008 0.8436095805070728 0.3252223019169864  -0.4583855589775405 0.834342295288264 0.2908898363909512  -0.3617086294840407 0.8679466362070806 0.3228030631304862  -0.3518148960056659 0.8542621166202612 0.3631755389994946  -0.3336873949168995 0.8376884113728968 0.4182166993137744  -0.2892222636417648 0.7132043031437239 -0.6280811752168038  -0.245271968093946 0.6948880080297446 -0.6656939413380478  -0.295313135090203 0.676124185200446 -0.66897364645363  -0.2096190009384653 0.7281075262882453 -0.6435064347894266  -0.3480020211429641 0.6596428538492078 -0.6629341871273919  -0.2475743004340572 0.7592052698109402 -0.5890209336983587  -0.3083056623477587 0.7360992066913274 -0.5899059636868025  -0.352781278431041 0.704842494506851 -0.6037809733502038  -0.2548927778987091 0.6561841841732208 -0.7014208212010519  -0.1981624729465085 0.6962833447344584 -0.6788755821916559  -0.3031388593226808 0.6361909573055219 -0.7017088230769748  0.1213403779107154 0.1110660208318251 0.9856606886099091  0.1733442539414555 0.1321123478960566 0.9729724709510286  0.1686296008839163 0.07553507995139822 0.9792047737913624  0.1286366650993422 0.177650245624088 0.9728077436817305  0.1267446507502291 0.0545050551926155 0.9879070337668223  0.08751505627754856 0.07942609455505265 0.9900740873058507  0.06835304538162387 0.1395596530112743 0.9848303420419757  0.2377573017959649 0.1426824739626205 0.9580963523248144  0.1950775348022866 0.1833604279025356 0.9584934975361739  0.212712952771493 0.09038732258021656 0.9687927954496742  -0.1053072611299366 0.9939945651567188 -0.003123150109830252  -0.100126482322757 0.9909360195717287 0.05402936043104789  -0.150809376825685 0.9843451031904726 0.04084934859909857  -0.05670219135502863 0.9947261074626512 0.03851994451298797  -0.1270735945148947 0.9883958375655864 -0.04469728498946646  -0.08374945469656726 0.9914125966885532 -0.06333718263003948  -0.04625248829759 0.9963924816925893 -0.01888263164708367  0.9744616395025107 -0.1789945353726951 0.1066104570190446  0.9634850999381994 -0.2429835341103903 0.07843407183339884  0.9581818746744704 -0.2536514745978532 0.1152387881678817  0.9736510604292928 -0.1996319881358489 0.06490797348984079  0.9597992153435403 -0.2267952854582747 0.1450611980380478  0.9674627997057423 -0.1849211410986809 0.1483069949416594  0.9751468289274992 -0.1256893513409906 0.1680444214782634  0.9871936570083761 -0.09612561096855408 0.1135418104706896  0.9822625783653076 -0.153929544561032 0.06808924630271691  0.9518521557988671 -0.2819973588417291 0.08968567089635728  0.9525681663724234 -0.2902546571342633 0.02690498730852328  0.9707811080641726 -0.2334861801187503 0.01490275135297181  0.9472316432019854 -0.2870676304841216 0.1313623502243031  0.5598510494196012 -0.7124007607039774 -0.4014484881729452  0.5574834094822159 -0.7475829767317286 -0.3402333935238483  0.5077246606172853 -0.7588028379207965 -0.3904772222118711  0.6108831589923862 -0.7008857336817498 -0.3499336480936457  0.5409400598116605 -0.7058040032798214 -0.4404817761907774  0.5997596963459673 -0.6731876332126148 -0.4156835901008056  -0.3218236267182282 0.09919108762401851 0.9369852840296584  -0.2794640513400738 0.07421265582924041 0.9535676117565879  -0.2635033896961915 0.1189489016444291 0.9558183506978808  -0.3021753883225058 0.0370789201038535 0.9479855432134503  -0.3413126869780299 0.05118499734637974 0.9340152502870673  -0.3950590987495731 0.08657708850493441 0.9095909851062471  -0.2874653141920523 0.1584225723056179 0.9417337540538102  -0.3510558331543249 0.1391082089756904 0.9213222446100452  -0.01957176916941343 0.8706879564686738 -0.4813463653408089  0.03134409865008157 0.8505950011172667 -0.5172196993879621  0.02736815047350605 0.8732308865035827 -0.4758445769937397  -0.02917128993598429 0.8375145858472309 -0.5401696644431495  0.009776155691609435 0.8989736494178613 -0.4301441444225654  -0.03495150240715136 0.8911373311723458 -0.4420030954873078  -0.07983610088345924 0.8554306387944766 -0.5018029810597552  0.06946847248663859 0.8816575099622264 -0.4559285751927026  0.1102163171941886 0.8521665912258657 -0.5006248513677916  0.07689883093190211 0.833666003000503 -0.5363252969023342  0.02330156175598298 0.8236051357705068 -0.5630556498826298  -0.9619504408862891 -0.2343441019055147 0.1182842811606184  -0.9557873321421788 -0.2711207792220596 0.08481925347264863  -0.9641268360116274 -0.2540316638146966 0.03846377060601408  -0.9490030848776212 -0.2703327841658572 0.1524135663833194  -0.9762388063733303 -0.1880856703047786 0.06273776572645867  -0.9786994419614867 -0.1630031334032485 0.09579213605245618  -0.9564929938504552 -0.2135616243877863 0.1749598903217517  -0.9721225140593988 -0.1682568004742931 0.1414840146739541  -0.9379399072750032 -0.3123919778299759 0.1252794970622467  -0.9432021860819413 -0.312627644522391 0.05973519053268209  0.6783090396059527 0.6413255097756296 -0.3480386046103361  0.6868067147364734 0.6057402497130316 -0.3831011286450575  0.6434982179113963 0.6535902501215138 -0.3827615746047039  0.7146120741016588 0.6094603549037287 -0.3249772390536957  0.6682845924403362 0.6724718770173205 -0.3093434359881228  0.6639765500613946 0.5872966599332723 -0.445241255780342  0.7372149469287012 0.5660460375951842 -0.3470760623727287  0.6979514365244988 0.550763415370216 -0.4409117984878903  0.7208270060996113 0.5525319593336768 -0.3964000512991364  0.6090232837818446 0.6918899366168374 -0.369095585450212  0.6199134152118031 0.6326176126214647 -0.44352
[...]
<PointData  Scalars="f_48"> 
<DataArray  type="Float64"  Name="f_48"  format="ascii">8.4068901705110036e+01  8.4015431596096761e+01  8.3994510083265311e+01  8.4133808442449208e+01  8.4019522024716252e+01  8.4113414302591238e+01  8.3931643249784400e+01  8.3945180585261738e+01  8.4049388925119402e+01  8.3911515222919036e+01  8.3962351759100969e+01  8.4055075890705282e+01  8.4060231811492045e+01  8.4109875859063919e+01  8.3998802628772495e+01  8.4120734908341959e+01  8.4023102267801917e+01  8.4101289021273388e+01  8.4112621783893673e+01  8.4021260523890220e+01  8.4059847620165783e+01  8.4098396910250230e+01  8.4186507836268959e+01  8.4161227445542991e+01  8.2814519516974471e+01  8.2911933510630149e+01  8.2814233101270887e+01  8.2919093588642113e+01  8.2671471917103062e+01  8.2838486305517080e+01  8.2867195100982514e+01  8.3042902264783848e+01  8.3006487171691035e+01  8.3031392898111179e+01  8.3305268709245652e+01  8.3235387691345068e+01  8.3299362050721257e+01  8.3228311687628548e+01  8.3393979418310025e+01  8.3408149551204133e+01  8.3306080722445799e+01  8.3252490445326416e+01  8.3168492828282936e+01  8.3189800001534024e+01  8.3373458427889531e+01  8.3306386692898926e+01  8.3946411134408763e+01  8.3992971017129321e+01  8.4072807202719687e+01  8.3863823327821379e+01  8.3875382415581697e+01  8.3824450599432751e+01  8.3960240071870487e+01  8.4031812366976595e+01  8.4282578305992530e+01  8.4364051374284173e+01  8.4253200251575947e+01  8.4363735326823189e+01  8.4207259616615971e+01  8.4277452779979896e+01  8.4382674035958615e+01  8.4521236568259738e+01  8.4468750716581766e+01  8.4132110148428225e+01  8.4292274734813148e+01  8.4195853540486212e+01  8.4465204866261004e+01  8.4496063063726254e+01  8.4313218328469432e+01  8.4631517816788033e+01  8.4254144312241834e+01  8.4635747598061357e+01  8.4498783722033508e+01  8.4443184592881025e+01  8.4610196856266114e+01  8.4302454756830869e+01  8.4233034051503751e+01  8.4127009242566245e+01  8.4612775899445680e+01  8.4423008499281082e+01  8.4638815698029745e+01  8.4287611038862664e+01  8.4843392517787834e+01  8.4447244017025028e+01  8.4685740651182670e+01  8.4849984991342268e+01  8.4449270931240775e+01  8.4235394483061157e+01  8.4674805307684736e+01  8.4236794755902949e+01  8.4259368879639666e+01  8.4216081734273246e+01  8.4285384850339426e+01  8.4174782967556908e+01  8.4138914165091904e+01  8.4252107795326324e+01  8.4294065154337730e+01  8.4287741871027706e+01  8.4250182164435486e+01  8.4400701261290905e+01  8.4443214120461988e+01  8.4282103479795182e+01  8.4996982633202236e+01  8.4323911770511430e+01  8.4636543746147524e+01  8.5215964136531014e+01  8.5281919747530409e+01  8.4978988585845997e+01  8.5052490599285591e+01  8.5025929588043752e+01  8.5243342209794946e+01  8.9999911728256833e+01  8.5206346975152982e+01  8.5048177052800142e+01  8.5046007182342692e+01  8.4908682087403662e+01  8.4772679181064404e+01  8.4835575512959721e+01  8.4945625978413432e+01  8.3501590138281628e+01  8.3551365032707110e+01  8.3413527752546798e+01  8.3645550209317435e+01  8.3431994046655547e+01  8.3568826876652750e+01  8.3937801322497862e+01  8.3854713510197172e+01  8.3810134867073671e+01  8.3895545308771204e+01  8.3996013500564089e+01  8.4135583095247100e+01  8.3834386343253712e+01  8.4000284242477278e+01  8.5653315730194279e+01  8.6205785301504605e+01  8.6599470795663208e+01  8.5319906518233765e+01  8.7324504544528821e+01  8.5222100251385697e+01  8.4519766184152871e+01  8.5780192307232028e+01  8.4501029900499162e+01  8.5084100536946991e+01  8.5810534560509325e+01  8.6143951323354699e+01  8.6209961731020385e+01  8.6269745494794336e+01  8.6099688766086501e+01  8.6210951215283345e+01  8.6159410592651284e+01  8.6046989046350362e+01  8.6092354958589610e+01  8.6160666972935459e+01  8.6276036472456283e+01  8.4094900450058489e+01  8.4061048024307382e+01  8.3988738546538883e+01  8.4179346059021825e+01  8.4126772384141717e+01  8.3943742125427946e+01  8.4181886341881551e+01  8.4001545789115639e+01  8.4090770082538128e+01  8.3944912132134078e+01  8.3866246120040230e+01  8.3848228120484862e+01  8.4201332266647697e+01  8.4319342541590757e+01  8.4514729418183819e+01  8.4154459155608095e+01  8.4096994953950173e+01  8.4126288099165563e+01  8.4148780647030733e+01  8.4275494432340466e+01  8.4467953144881932e+01  8.4633902314262642e+01  8.4641157205583227e+01  8.4693908016192168e+01  8.4604257138917148e+01  8.4657365089925676e+01  8.4629135834618936e+01  8.4609059829898513e+01  8.4087938168634224e+01  8.4674233506580919e+01  8.4236928902515899e+01  8.4618430003913616e+01  8.3434714836511446e+01  8.2999918593836867e+01  8.4251241391718239e+01  8.4827241784423009e+01  8.4920423310968502e+01  8.4996352465182611e+01  8.4428449859794242e+01  8.4444467496827770e+01  8.4453682174014318e+01  8.4415329673780391e+01  8.4420505346334835e+01  8.4399595575317363e+01  8.3996769831645807e+01  8.3963268438573422e+01  8.3932269956181074e+01  8.4029004995979676e+01  8.3926995544700731e+01  8.3988776931718348e+01  8.4055093798991081e+01  8.4077849027023433e+01  8.3895495847772978e+01  8.3971844914103144e+01  8.3828573623120278e+01  8.3828030531728345e+01  8.4483824066098677e+01  8.4467804094523274e+01  8.4510429168115067e+01  8.4449998955259858e+01  8.4518822252489556e+01  8.4461621180036687e+01  8.4492157556211779e+01  8.4497343065060903e+01  8.4529899484773736e+01  8.4503054386277654e+01  8.4471902195830893e+01  8.4542849867628206e+01  8.4492093755016455e+01  8.4593821984524780e+01  8.4582535046653362e+01  8.4544923087899861e+01  8.4442734394370788e+01  8.4505506217915666e+01  8.4447924435851561e+01  8.4424253760629540e+01  8.4419305487753959e+01  8.4344444993173951e+01  8.4314025757009787e+01  8.4328094206865600e+01  8.4343533977998604e+01  8.4386939078354359e+01  8.4358789519445665e+01  8.4284961850124887e+01  8.4297644899218426e+01  8.5304368080601222e+01  8.5218052602104535e+01  8.5248716738335631e+01  8.5291175551208610e+01  8.5326462406707037e+01  8.5379481248350544e+01  8.5382540505846080e+01  8.4025485843565079e+01  8.3934296239238932e+01  8.3955800243265685e+01  8.3978351904243041e+01  8.4082452474008690e+01  8.4114026680812202e+01  8.5811359845367718e+01  8.5931577021127111e+01  8.5835248599205926e+01  8.5812348599991296e+01  8.5693985590238384e+01  8.5695384339906383e+01  8.5113972864185328e+01  8.5010248918971769e+01  8.5057042849312339e+01  8.5029493240629606e+01  8.5242056753423711e+01  8.5207829654863048e+01  8.5112349536972033e+01  8.4938421810772752e+01  8.4963081458638570e+01  8.5122723311450301e+01  8.5005340329092135e+01  8.4934260982858120e+01  8.5271573716233306e+01  8.5333576037274128e+01  8.5237109687129291e+01  8.5372937655175988e+01  8.5118197276896169e+01  8.5135926894185332e+01  8.5215160778864615e+01  8.5312561864872791e+01  8.5300499030627222e+01  8.5430129345293906e+01  8.5100182883411620e+01  8.5196922287694122e+01  8.5144375986461199e+01  8.5121729553724123e+01  8.5038228286829195e+01  8.4997231712566503e+01  8.5047532665889847e+01  8.5272784231208107e+01  8.5360053601477105e+01  8.5000563295319111e+01  8.5051561062656816e+01  8.4976123093159003e+01  8.6171258787015915e+01  8.6190635378178953e+01  8.6269068724410104e+01  8.6123810096037118e+01  8.6252002896896641e+01  8.6147359787016825e+01  8.6085195794640583e+01  8.6238155039207328e+01  8.6156448665406145e+01  8.6370269999746682e+01  8.6379565543825166e+01  8.6334203586965003e+01  8.5586024213665269e+01  8.5544046141037086e+01  8.5495342059267429e+01  8.5637775109929876e+01  8.5515807997604668e+01  8.5683301794469486e+01  8.5616627245652793e+01  8.5411474116360523e+01  8.5500236815023058e+01  8.5628124717403253e+01  8.5411254698682072e+01  8.5416191829995313e+01  8.5457339236373699e+01  8.5533076634405916e+01  8.5421468597513851e+01  8.5572430283431700e+01  8.5346637507777317e+01  8.5378199669035823e+01  8.5471970194937029e+01  8.5495645353145150e+01  8.5606851117073177e+01  8.5645426415424041e+01  8.5364220992047450e+01  8.5317567503567986e+01  8.3448890315457561e+01  8.3336918980337387e+01  8.3374076632825890e+01  8.3401068688940242e+01  8.3499741045728740e+01  8.3523864153120314e+01  8.3239642748254298e+01  8.3250368250842143e+01  8.3210595336121230e+01  8.5334937282865610e+01  8.5414369856938890e+01  8.5470401212991050e+01  8.5308113249601448e+01  8.5282544050016966e+01  8.5394398318240960e+01  8.5230190909021999e+01  8.5523274038777302e+01  8.5290153665158300e+01  8.5370467353474211e+01  8.5470175899904476e+01  8.4305847642651642e+01  8.4247417326963685e+01  8.4230124557219412e+01  8.4295456929784137e+01  8.4280683328437036e+01  8.4330364634089761e+01  8.4373990368263620e+01  8.4353998844538708e+01  8.4142991769808930e+01  8.4186350395809342e+01  8.4200239587890067e+01  8.4291975918058398e+01  8.4137110842581592e+01  8.4228113258619587e+01  8.3874775495020643e+01  8.3834242392640718e+01  8.3806795758952347e+01  8.4109605595478769e+01  8.3940540765847857e+01  8.3878945394135968e+01  8.4510439133006415e+01  8.4016565833195870e+01  8.4523957484015085e+01  8.3874785165817144e+01  8.4236809262911208e+01  8.4039225370857949e+01  8.3935231605783684e+01  8.3810105898348255e+01  8.3728219299069266e+01  8.3118384273921563e+01  8.3061009102602981e+01  8.3125463377348680e+01  8.2998108281550330e+01  8.3201394236933808e+01  8.3094608104088067e+01  8.3178988924057379e+01  8.4752598586323302e+01  8.4652190295377721e+01  8.4770093698937671e+01  8.4433774687693074e+01  8.4775728594910788e+01  8.4812502468825571e+01  8.4420762360048968e+01  8.3592827378181042e+01  8.3493916778230812e+01  8.3557717561851177e+01  8.3527941409148937e+01  8.3679603479856780e+01  8.3736019328875003e+01  8.3673111065675613e+01  8.3725358495296589e+01  8.3608477537714734e+01  8.3434539474312501e+01  8.3394786628424413e+01  8.3429473374833620e+01  8.3448187916731783e+01  8.2530228914559885e+01  8.2446591778598986e+01  8.2623618612540199e+01  8.2474686031921237e+01  8.2751155345367067e+01  8.2695389542993453e+01  8.2615707283390392e+01  8.2658545824439983e+01  8.2452456551414201e+01  8.2290424072258489e+01  8.3063383077501172e+01  8.2947407128017900e+01  8.3209923883651328e+01  8.3528907821550149e+01  8.3415720954723028e+01  8.2695748903574966e+01  8.3000872520333857e+01  8.4294622156941699e+01  8.4137479988825092e+01  8.4224381897390145e+01  8.3513498485021557e+01  8.2375962976248502e+01  8.6210435104746992e+01  8.6253995347781512e+01  8.6266711585199488e+01  8.3006391434266291e+01  8.2977130004810078e+01  8.2803579629901421e+01  8.3173133492701652e+01  8.3097857353110726e+01  8.2936603895548643e+01  8.4459621824840639e+01  8.4403981987245459e+01  8.4449214238579216e+01  8.4482643509091446e+01  8.4524933880074471e+01  8.4559604099265783e+01  8.4954050950504879e+01  8.5012417523213685e+01  8.5055672757120831e+01  8.5144029304920736e+01  8.4891466148268762e+01  8.4875986162128143e+01  8.4822808438282365e+01  8.4977182546334078e+01  8.5094612101766032e+01  8.4369981707981154e+01  8.4404732544093889e+01  8.4430770052124913e+01  8.4363067163659451e+01  8.4380138996618300e+01  8.4347469641718263e+01  8.4359119679022655e+01  8.4495285660969287e+01  8.4465878614799365e+01  8.4403171796370529e+01  8.4527804591743987e+01  8.4393357823366657e+01  8.4541073229087772e+01  8.3956482164664934e+01  8.3895730720617138e+01  8.3887763670254031e+01  8.3960340589317923e+01  8.3946453842436270e+01  8.4033365006936933e+01  8.4016068096621964e+01  8.3829564071421416e+01  8.3854214068990572e+01  8.3914668000838461e+01  8.3172381437294973e+01  8.3153834114770177e+01  8.3284425900477146e+01  8.3248174409548184e+01  8.4192584164586648e+01  8.4192924661384069e+01  8.4340104589369375e+01  8.4047273899746855e+01  8.4335869385193448e+01  8.4133009990667773e+01  8.4070584545770259e+01  8.4274356012742501e+01  8.4073502378402338e+01  8.4163741934904635e+01  8.4427906500881093e+01  8.4392131881818599e+01  8.4513553342357625e+01  8.5895796882683399e+01  8.5839024942278513e+01  8.5984490015692700e+01  8.5753344716010190e+01  8.5823525421678667e+01  8.5961260562145654e+01  8.5979863075702994e+01  8.3427864774181643e+01  8.3323706683780841e+01  8.3297930155407798e+01  8.3556252572920044e+01  8.3482139430557410e+01  8.3383254458937401e+01  8.3232333800570430e+01  8.3347945100672931e+01  8.3253528426993398e+01  8.3304762177763720e+01  8.3282387378402859e+01  8.3323350734837163e+01  8.4158179170302120e+01  8.4051523327067727e+01  8.3373343977045522e+01  8.4692274556193652e+01  8.4380410352783358e+01  8.3721757900451109e+01  8.5068433736514592e+01  8.5101234126137712e+01  8.4399932372659023e+01  8.3889281006071272e+01  8.3414998363968721e+01  8.5145664184232601e+01  8.4812366589497231e+01  8.4909475374322597e+01  8.4508794329996149e+01  8.4405084486906219e+01  8.4465216572667444e+01  8.4548476128296315e+01  8.4430601812940907e+01  8.4460002646811404e+01  8.4154383385138459e+01  8.4305162944020537e+01  8.4141226788750203e+01  8.2946377988389258e+01  8.2970918752503579e+01  8.3188828376585477e+01  8.2978918667416963e+01  8.3012984853201758e+01  8.3372832503278161e+01  8.3064226376725159e+01  8.2892573697868627e+01  8.5675879747081780e+01  8.5559748083876443e+01  8.5573072799087214e+01  8.5660739072631870e+01  8.5771309402700538e+01  8.5684007464139441e+01  8.5733521607519052e+01  8.5470284102347421e+01  8.5515443122743278e+01  8.5588385052698413e+01  8.4185431035755229e+01  8.4213565632497591e+01  8.4135698541464379e+01  8.4245966315412204e+01  8.4107335862406501e+01  8.4142700066603766e+01  8.4228376859980060e+01  8.4138272850729507e+01  8.4229531673584503e+01  8.4273830559410541e+01  8.4058580340390264e+01  8.4071909534552503e+01  8.4224858806707161e+01  8.4267966290530424e+01  8.4241584589102175e+01  8.4232476972130712e+01  8.4153761093805997e+01  8.4168354060675753e+01  8.4313185744202471e+01  8.4294195168015932e+01  8.4262321183204349e+01  8.4145227449508269e+01  8.4217033972347053e+01  8.4103464831257270e+01  8.4223155131927527e+01  8.4084801244049160e+01  8.4227463284228008e+01  8.4180704715470981e+01  8.4267339810242262e+01  8.4292842493234090e+01  8.4104018174387619e+01  8.4018036445476525e+01  8.4002793478303573e+01  8.3592040934378417e+01  8.3496847823329887e+01  8.3238700444465323e+01  8.3657446151749184e+01  8.3422622915875181e+01  8.3745624565162260e+01  8.3787798640641768e+01  8.3432698907420104e+01  8.3645635914125634e+01  8.3612422994591839e+01  8.2736112873617216e+01  8.3384323466040598e+01  8.4399469682937493e+01  8.4435702144081688e+01  8.4398973696972334e+01  8.4416747327773635e+01  8.4361834843128662e+01  8.4376932317465034e+01  8.4455646926126377e+01  8.4454930237748755e+01  8.4481657768642009e+01  8.3083425712076732e+01  8.3158034114905462e+01  8.3127674854173179e+01  8.3033329968333874e+01  8.3105936991582183e+01  8.3216288394607403e+01  8.3139129352267048e+01  8.3908671226756837e+01  8.3828489940530005e+01  8.3643982603975118e+01  8.4005181185244680e+01  8.4099766824456410e+01  8.3666760179274135e+01  8.3842141586943043e+01  8.3579690768647126e+01  8.3347130145327142e+01  8.3397402617036164e+01  8.3022371206452135e+01  8.2895540292250388e+01  8.3089539328500848e+01  8.2905059565579094e+01  8.2993237400675056e+01  8.3187005871312635e+01  8.4346858745972057e+01  8.4350984691835293e+01  8.4369886045673923e+01  8.4403393440298302e+01  8.4277017537105408e+01  8.4278076724902718e+01  8.4412320010519537e+01  8.4093021930772196e+01  8.4387761880079665e+01  8.4246824127049194e+01  8.4359734564090658e+01  8.3565292071521412e+01  8.3504918545601257e+01  8.3490266890441333e+01  8.3679882319364140e+01  8.3584306979864536e+01  8.3643273215732393e+01  8.3682072746174299e+01  8.3418595592127488e+01  8.3605615906651266e+01  8.3605667884524436e+01  8.3413340047481682e+01  8.3518888842808053e+01  8.4410578049343343e+01  8.4370572160108892e+01  8.4346327568787984e+01  8.4445434320461928e+01  8.4402020811521453e+01  8.4445535541830537e+01  8.3806445734224269e+01  8.3743293467758832e+01  8.3876118796044423e+01  8.3755798665823505e+01  8.3691575451381638e+01  8.6258795710946657e+01  8.6086093307296153e+01  8.6029894931136496e+01  8.7514305326145461e+01  8.5282814519519775e+01  8.4956267189037760e+01  8.5866284924221020e+01  8.4898184253473389e+01  8.5201830781252653e+01  8.5445005412460105e+01  8.4743840429078588e+01  8.5675113173242167e+01  8.5563942981534396e+01  8.4424775754121896e+01  8.4476915663354418e+01  8.3977460278669014e+01  8.4022236810985589e+01  8.3955238230746616e+01  8.4063045298607648e+01  8.3897894110633771e+01  8.4005502170640312e+01  8.3894433824385928e+01  8.4129185598637619e+01  8.4040030537479339e+01  8.4403454085841176e+01  8.4331527063568132e+01  8.4412873944856059e+01  8.4355975683685912e+01  8.4365042320025083e+01  8.4305765103750943e+01  8.4258851868108295e+01  8.4298758716970866e+01  8.4429706447206584e+01  8.4462964049895930e+01  8.4471108123200580e+01  8.3413601526542124e+01  8.3448001852977683e+01  8.3300260097312844e+01  8.3522160844939762e+01  8.3499117067015803e+01  8.5504483661610450e+01  8.5474603207049100e+01  8.5588613370671041e+01  8.5418340396191780e+01  8.5448724645772288e+01  8.5581495454526703e+01  8.5345106399269113e+01  8.5377841877555724e+01  8.4648218775482121e+01  8.4694893341638050e+01  8.4680681408793404e+01  8.4642949143076564e+01  8.4643439680547729e+01  8.4598001293191132e+01  8.4774947851789406e+01  8.4719077167165509e+01  8.4725034475994832e+01  8.4378475714998473e+01  8.4781272548569518e+01  8.4650312864105089e+01  8.4243344658281131e+01  8.4373367673424596e+01  8.4126741721793380e+01  8.3859632608738337e+01  8.4630709927284926e+01  8.4746779427591832e+01  8.4897114150782897e+01  8.4496931113007648e+01  8.4522096199914614e+01  8.4489089165430642e+01  8.4446858462605974e+01  8.4455692012118732e+01  8.4490444015515919e+01  8.4487480291631442e+01  8.4544397223218681e+01  8.4542113592646984e+01  8.4408424000481219e+01  8.4375588639259917e+01  8.4412095577074851e+01  8.4459418398360938e+01  8.5848682266315961e+01  8.5707194671117222e+01  8.5747989319820377e+01  8.5796239451082215e+01  8.5854927227862419e+01  8.5967980532957611e+01  8.6003163083280597e+01  8.5937304084895089e+01  8.5660340139195426e+01  8.5591244532536635e+01  8.5531622241910583e+01  8.5683068912193363e+01  8.5580830358006025e+01  8.5668542929181029e+01  8.5766027250162878e+01  8.4704931615195761e+01  8.5139166507917949e+01  8.5182851576276278e+01  8.4687239641144259e+01  8.4192871819051874e+01  8.4835310969508711e+01  8.4107435870304144e+01  8.4063693729322040e+01  8.5320343984847440e+01  8.5225765055487543e+01  8.4679168360882585e+01  8.4214511240434859e+01  8.4246936654593284e+01  8.4259401215684349e+01  8.4223798986990957e+01  8.4172438789720900e+01  8.4200387217970984e+01  8.4198642432090125e+01  8.4281591831132204e+01  8.4292462843930338e+01  8.4275202988349548e+01  8.4251572274763461e+01  8.4712597463655399e+01  8.4756377922756329e+01  8.4725883186783022e+01  8.4860412795150495e+01  8.4503461842437702e+01  8.4872450370146424e+01  8.4760640629281028e+01  8.4631427643246496e+01  8.5529907233703909e+01  8.6471964785601742e+01  8.6690748078395004e+01  8.6508694937370905e+01  8.6565072485707830e+01  8.6301673345542795e+01  8.6236834262841185e+01  8.6767424151742205e+01  8.7000275071384934e+01  8.4358486000155125e+01  8.4367234650694726e+01  8.4368331626963595e+01  8.4354037986539325e+01  8.4350137702267361e+01  8.4413476622514565e+01  8.4395886391727203e+01  8.4363513546404377e+01  8.5936864181478668e+01  8.5942752615605997e+01  8.6098679432970272e+01  8.5833880379852701e+01  8.6040962182695225e+01  8.5913372213709494e+01  8.5847852786695398e+01  8.4617037579182977e+01  8.4720768005634085e+01  8.4617860293112869e+01  8.4694580401080984e+01  8.4535692347456447e+01  8.4662632571991466e+01  8.4596643792834698e+01  8.4520653451901595e+01  8.4709166144202740e+01  8.4768067058117254e+01  8.4859487940550395e+01  8.4873902910494053e+01  8.4588342937505004e+01  8.4533541250133837e+01  8.5246648752546150e+01  8.5278436551192499e+01  8.5356787640698997e+01  8.5217149889954484e+01  8.5312583699204069e+01  8.5212641565550456e