<?xml version="1.0"?>
<VTKFile type="UnstructuredGrid"  version="0.1"  >
<UnstructuredGrid>
<Piece  NumberOfPoints="4137" NumberOfCells="8270">
<Points>
<DataArray  type="Float64"  NumberOfComponents="3"  format="ascii">-0.2808723398607004 -0.656291431785649 0.6932747803366526  -0.3334858023554578 -0.6240578046990017 0.6996281115060861  -0.284341433478376 -0.6113204725336716 0.72814939825906  -0.3469700359025831 -0.6626614232475491 0.6606723544663398  -0.2258924299110142 -0.6470399872109442 0.7195385259556986  -0.2251257802864804 -0.6829215789288169 0.6838941567836619  -0.2824507539215234 -0.6918555584183714 0.6572222488447749  -0.3281852196127976 -0.5765906776028936 0.7392049182952523  -0.371621454085028 -0.5917833098100846 0.7038841432156682  -0.3875579617970297 -0.6243352317313869 0.6692361294160065  -0.7860562261584001 0.38848057129316 -0.466252746082303  -0.7658843115567643 0.4453304398448582 -0.4445323514240526  -0.7545924955260526 0.4114553220434811 -0.4980722142084535  -0.8049990941019993 0.4005106852349561 -0.4212335481574853  -0.7569823816791671 0.3749836646336214 -0.520954751410509  -0.7934621823905164 0.3469304094234736 -0.4936209745610719  -0.8229795282761423 0.3448337194114819 -0.4398306230628883  -0.8303099101089595 -0.2176275893842202 0.499444095491437  -0.8165192943507458 -0.2682505166846055 0.5007513639704716  -0.8551035021920164 -0.2277120700636326 0.4542982004025967  -0.7911402818988567 -0.2561627502242247 0.5442567884016087  -0.8463984657580115 -0.1675903118656419 0.494293196170925  -0.8046677727134328 -0.2069870404835616 0.5439843055404332  -0.7863121214434778 -0.3041988080477514 0.5278085757771951  -0.8083205285682874 -0.3302611211020362 0.4856988202350146  -0.83531689320891 -0.2929943371691993 0.4549587852995169  0.8598038223273387 0.389687430138382 -0.312960282889647  0.8481744383834497 0.4347535723828614 -0.2815693808646601  0.8207520327986901 0.4587185864161653 -0.3309069284547098  0.8866386470880731 0.3783542106920501 -0.2410494751717727  0.8396120246904399 0.3827401455598344 -0.3648795955086674  0.8791102919068449 0.3377378646879626 -0.3219096604961947  0.8250288644015717 0.4827640385469368 -0.2797588531279008  0.851634267867357 0.4578947000962265 -0.2337026767196516  0.7928798731130025 0.4573376715414555 -0.3855122360395609  0.7747094540774018 0.5054551453871892 -0.364507672941203  0.795496965984261 0.5117781604391043 -0.3133750422876517  -0.0003576519005517627 -0.175581658590283 0.9821552258143784  -0.06929463911776289 -0.1271437308378647 0.9870090803852005  -0.01021822257034951 -0.1046463694560531 0.9935848754577659  -0.07118123334710617 -0.1895690915891947 0.9752230530925196  0.03970517978462727 -0.1269132160120313 0.9887035470757969  0.07190945384386258 -0.1703040598798339 0.9791063951141654  0.07421321156071159 -0.2310922779972763 0.9663163435589249  -0.04231134100758599 -0.2398280393668074 0.9671657410999002  0.01573115292095002 -0.2472550928508475 0.967676198792331  -0.05577858681178526 -0.07482813063520602 0.9925236058831335  -0.1044973075380297 -0.07284941687992311 0.9893725861833728  -0.1312539289923432 -0.1133523637762667 0.9838090905611983  -0.1063319003109846 -0.1568835651725497 0.9790926299605116  -0.01174643459076142 -0.04333844794568406 0.9969491161212316  0.02909250121673206 -0.07941102656343305 0.993990517026609  0.9233538119282201 -0.1095652103104407 0.3537996555271882  0.8975589441232642 -0.105525614284198 0.4206569326355395  0.8992394597293749 -0.1768751755599177 0.3873537757642393  0.9104434506848031 -0.05786261059708762 0.4005872597010882  0.9348875237570944 -0.06333637501012415 0.3367137738052802  0.949667069617258 -0.0776646195904222 0.2904717419791918  0.9185853735954236 -0.1567611842251835 0.3486515255830084  0.9346362518452447 -0.1617670431441719 0.3039971653960174  0.949179524049838 -0.1230469765645905 0.2843311348002717  0.1016093740241883 -0.343936708438235 -0.9280586934097965  0.1393247532834482 -0.3093555995633642 -0.9375643953089126  0.09364132805605085 -0.3024708912690755 -0.9447347402355954  0.145000540295447 -0.3488842462134663 -0.9211096858601806  0.05948921654536171 -0.3332558668961398 -0.9362667445946681  0.1182678848969623 -0.3814470470538575 -0.9115957453510501  0.06610084183283907 -0.3926773210018228 -0.9126789562511817  0.1215498475791014 -0.2307144544464647 -0.9624335270644527  0.1837928759100633 -0.3299410715943389 -0.9197692530388109  0.2257827877454135 -0.2991447108481555 -0.9222740775710478  0.1681437349536383 -0.2369685405049917 -0.9532015070795408  0.03540160489092001 -0.2878837818200878 -0.9528934844992287  0.0811250596736045 -0.2599892432251645 -0.9597160953286505  -0.7191702538328895 -0.3643464711004616 0.5771827760852568  -0.732330622329169 -0.3175288343315538 0.5903712841943949  -0.7039368462048129 -0.317570778439651 0.6265584375273969  -0.7586331847668466 -0.3248978768665729 0.5533633016827313  -0.6881716421876836 -0.3806321245083859 0.6057144955499685  -0.7642636340605498 -0.356373995654396 0.5246375120777738  -0.7243075976405996 -0.4001340711726089 0.5454211620501754  -0.6844153923966679 -0.4247141853707115 0.5795945710692929  -0.7255765193460637 -0.257460539601286 0.6272510142714076  -0.7592833271687653 -0.2856960929510599 0.5709819410831227  -0.6907702088502589 -0.2799412011166665 0.6590841232897375  -0.6559613681183449 -0.3081827120245194 0.6843433261984833  -0.6618916174949998 -0.3737548554237698 0.6418013202725188  0.4703719646974457 -0.3892390446701461 -0.7832553761765089  0.502193335829564 -0.3449954446088052 -0.7878680932130198  0.5240251341882882 -0.3890514652512299 -0.746937973233234  0.4529271704160072 -0.348584516333558 -0.8154153115586359  0.4787659223749604 -0.4338854993025127 -0.7527987097659699  0.4309678128598051 -0.4370924196334842 -0.7784036949968052  0.4197705181426166 -0.394029501988369 -0.809560790413573  -0.3632027124432303 -0.04417314017537743 -0.9265447531297123  -0.3764527314977355 -0.09061385522601284 -0.9164633209480294  -0.3287208017917414 -0.07802110589100435 -0.9365072502528951  -0.4202299722288896 -0.05789717186614379 -0.9016445362732077  -0.316398160915969 -0.02669819580519671 -0.9437725770467577  -0.3535894935100809 0.009802583323682015 -0.932185026645579  -0.3964401816808708 -0.008928190004078029 -0.9172172443362314  -0.3291452448019793 -0.1384439896098704 -0.9299849119914283  -0.420819752501559 -0.1130546718029747 -0.8967031087173122  -0.380238557264454 -0.1457184400930681 -0.9088987482256201  -0.2965785487863754 -0.05979605346741206 -0.9486053444681664  -0.2806938269486332 -0.09512127183891098 -0.9519884505689002  -0.2900059347398217 -0.135810643137444 -0.9456113961114327  -0.3299914204907438 0.6049816740080352 -0.7162738869070864  -0.3821903810356971 0.6031570488518602 -0.6893061840844379  -0.3971624376834633 0.53692390848697 -0.732516236916209  -0.3572730544266803 0.6503713111132178 -0.6654074432175112  -0.3275476675510354 0.5592078238187934 -0.7530719907289867  -0.2884583999332564 0.6098870176537668 -0.7277542208883887  -0.3041671743101246 0.6507404980914202 -0.6899194553599368  0.3389140884808491 0.8863352116251866 -0.3038835463103303  0.3855769227616438 0.8570341608188788 -0.3232394978406659  0.3472734227996439 0.8535778985170075 -0.3692409317830928  0.3803942294613274 0.879285984779884 -0.2624955186982653  0.2909902784084032 0.8736121212101347 -0.3743471399373524  0.3228687551162911 0.90736908194951 -0.2518187009968619  0.2839639714729542 0.9047706145920169 -0.311042114559975  0.3873278198880853 0.8358501544567963 -0.3686705181074621  0.4264662528937881 0.8258984034455175 -0.3516970470124898  0.4069681909096347 0.8593684877567289 -0.2876007584736419  0.7359695648123719 -0.2627324873362914 0.6115172270606474  0.7685003966765463 -0.2151286603308433 0.592436423833249  0.7501241390052202 -0.1735055258106144 0.6326643276544826  0.7653637538038092 -0.2582583356874243 0.5761400974621955  0.7052901934580298 -0.2217250279167673 0.6625778288650269  0.7361157906244211 -0.3020060421043862 0.5928493086828335  0.7059177505404589 -0.2667866081830091 0.6479305999188554  0.70782626977934 -0.3113593828785305 0.6245217365877136  -0.2701380622736944 -0.9083400607645897 0.3097498743669675  -0.2338561902308293 -0.9030402656779131 0.3445174431883527  -0.2261260686642144 -0.9209242843258769 0.3024579995375666  -0.2754376289173173 -0.8850030128031228 0.3599117333653725  -0.2527321209022567 -0.9271913316371194 0.2584384912759921  -0.3100837069100995 -0.9092192920625815 0.2656046096731617  -0.313237347160656 -0.8961974012530847 0.3083530434152651  -0.18828182705456 -0.9158753980202141 0.3374761717552445  -0.1775276015241721 -0.8995952991023288 0.3860507346442075  -0.2279245470246181 -0.88569885782423 0.3887377313724884  -0.5319231169325773 -0.6430115311258324 -0.5400512033666782  -0.5754957110803214 -0.623686285235276 -0.5158038551094912  -0.565295137150871 -0.661179808767077 -0.4790594137383163  -0.5488016406853269 -0.6056496240482492 -0.5605345866915123  -0.523518786493709 -0.7002579947879788 -0.4754652635571743  -0.5201636530558191 -0.599109996698405 -0.5957122016708644  -0.4877181204954717 -0.6617822334820287 -0.5583434341282825  -0.4878356698471234 -0.6961461561455318 -0.5201317384774495  0.5056358750379407 0.129800977065531 0.8463594259753997  0.4648986938048948 0.09203828263310079 0.8755322387407228  0.5082937234627459 0.06622093098743756 0.8530670940706503  0.4715850319467298 0.1479936390148317 0.8658028418658462  0.5555514566181924 0.07894153473550479 0.821058085848571  0.4791118709936666 0.1878572377895635 0.8508790530640229  0.526792839340569 0.1812218105737509 0.8222114957057978  0.5587838529465528 0.1365199565942797 0.8113647551363177  0.4648045171240662 0.0414552202691305 0.8784209792723321  0.4240976142578941 0.06327720480501073 0.8992476194042242  0.4360994972470998 0.1374914566779145 0.8881402606683002  -0.4744594150123452 0.8361700255712178 0.256895882008346  -0.4445663082900962 0.8324862921816693 0.3187703044649726  -0.4186967190762994 0.8604067958510886 0.2657378370951506  -0.4867212347
[...]
<PointData  Scalars="f_38"> 
<DataArray  type="Float64"  Name="f_38"  format="ascii">6.9675661238888949e+01  7.0217035092433193e+01  6.8953157340707946e+01  7.1137335377076553e+01  6.9295841027968351e+01  6.9887909851180098e+01  7.0311532969139108e+01  6.9319368850893696e+01  7.0501416474857464e+01  7.1422449692183406e+01  8.4009006909218328e+01  8.3556142310932387e+01  8.3697770222288966e+01  8.4051351410837256e+01  8.3898252254116557e+01  8.4281284362283557e+01  8.4490191223333639e+01  8.0050681421026212e+01  8.0116777408934283e+01  8.0933713895834785e+01  7.9224106652765258e+01  8.0064226243455522e+01  7.9187254220880618e+01  7.9553518173725564e+01  8.0521921602027447e+01  8.1026267429776809e+01  8.4813656626226049e+01  8.5461496851305554e+01  8.4514455701758692e+01  8.6078059769012285e+01  8.3821191304104758e+01  8.4532472350931243e+01  8.5501654967985871e+01  8.6478018532151893e+01  8.3349935485896808e+01  8.3603795033610197e+01  8.4708922825323427e+01  7.3269536517188214e+01  6.8533733753064681e+01  7.1937447571703288e+01  6.8825941642216023e+01  7.6466858410711694e+01  7.8655744410164772e+01  7.8635218959408064e+01  7.1136575654279468e+01  7.4981909246551382e+01  6.9057890030972288e+01  6.5535958245554042e+01  6.3834332317905044e+01  6.6102645182551555e+01  7.1493207702363577e+01  7.5922351117805036e+01  8.6886185379543534e+01  8.6640418101012571e+01  8.6406850061538933e+01  8.6937879424269312e+01  8.7153294432585852e+01  8.7273581250685709e+01  8.6679602900383003e+01  8.6868062204753727e+01  8.7148621130668900e+01  6.5936796705305838e+01  6.3270685195959381e+01  6.6855379670023126e+01  6.2894997524713958e+01  7.0808333975002284e+01  6.3901271845172282e+01  7.0983041521796565e+01  6.5253427916779600e+01  6.2884674284383763e+01  6.4706064139826253e+01  6.5236840594083731e+01  7.2368547533656766e+01  6.7808625364347506e+01  7.8210211286321325e+01  7.8095142948311690e+01  7.7302569111589861e+01  7.8938057929316614e+01  7.7489100261268391e+01  7.9480300232166996e+01  7.8799158805971018e+01  7.7875566860752457e+01  7.7390186469140161e+01  7.8574556229380562e+01  7.6643680228359159e+01  7.5960950351911023e+01  7.6676791894570940e+01  7.2443652315934401e+01  7.3194136095526275e+01  7.3623812448415947e+01  7.2062980580620476e+01  7.2660594834794395e+01  7.1375657490415065e+01  7.1138535228472875e+01  8.1815385002334480e+01  8.1918120750848558e+01  8.1417414424181260e+01  8.2426599728638323e+01  8.1308515409995721e+01  8.1742379096921553e+01  8.2243802147473090e+01  8.1396743668094913e+01  8.2450099584083091e+01  8.1968678322726348e+01  8.1083123700962346e+01  8.0936509976521052e+01  8.1037657412092756e+01  8.0609869941730992e+01  8.0821078910252240e+01  8.1183933108141119e+01  8.0481191893306516e+01  8.0813913693546354e+01  8.0362698288119532e+01  8.0224421898933926e+01  7.7303101434750076e+01  7.7729360656352497e+01  7.6701182700281066e+01  7.8267615221625306e+01  7.5969580176807611e+01  7.7606523102727536e+01  7.6588668312500289e+01  7.7241063068190755e+01  7.8086680568297851e+01  7.8471903924117953e+01  8.4942723616132355e+01  8.5311821090509213e+01  8.5331821541388919e+01  8.5139471128967131e+01  8.4890797536165323e+01  8.4806882094731151e+01  8.4757263291189332e+01  8.4619110558976544e+01  7.4772722927829037e+01  7.4323265893278489e+01  7.4808791825787253e+01  7.4252790192663326e+01  7.5142966045748153e+01  7.5727331380426136e+01  7.5340376204350505e+01  7.4738076147556498e+01  7.4552689539341287e+01  7.3885732678177888e+01  8.3731873402359312e+01  8.4457756136746610e+01  8.4277263848037080e+01  8.4011902606456133e+01  8.3552510699864882e+01  8.3578929868507302e+01  8.3006288992857804e+01  8.2974279998447329e+01  8.4190740450853951e+01  8.3834775015205054e+01  8.4157561696179897e+01  8.3953871112358854e+01  8.4549309722924718e+01  8.4018982619069178e+01  8.4418894191172058e+01  8.4657024481614869e+01  8.3770406097404489e+01  8.3491186365667090e+01  8.3667272215328410e+01  7.4075924258944283e+01  7.2797242169213561e+01  7.2923742338225892e+01  7.3837874282856461e+01  7.5111291843777963e+01  7.4221706444439192e+01  7.4826791333443708e+01  7.1619484949103082e+01  7.1145394399288904e+01  7.2825040342969288e+01  7.1487302176797144e+01  7.9977384653710246e+01  7.7857036775193748e+01  7.8741134247650550e+01  7.8440101908792599e+01  8.0276969524034982e+01  8.1082722642620453e+01  7.9807272488272204e+01  7.7427951987397776e+01  7.5202235470851093e+01  7.5608560814155524e+01  6.8888702300866555e+01  6.9178540520613339e+01  6.9658762042331915e+01  6.8087234301787731e+01  6.9894182909465997e+01  6.8763032549113021e+01  6.9731283647746409e+01  7.0331902786520672e+01  6.8799631283602338e+01  7.1435544585867405e+01  7.0336208501504245e+01  7.0107004015284716e+01  8.2431612400215627e+01  8.1784420628362511e+01  8.2697434267240297e+01  8.2368315352450352e+01  8.2873777558535110e+01  8.3322841145012845e+01  6.6189413219664061e+01  6.5207924966481443e+01  6.7998059894257921e+01  6.2011285162240824e+01  7.0315948953596745e+01  6.8596594802946925e+01  6.5350991552699682e+01  6.3234504555389570e+01  6.6720412277951652e+01  6.3167915508669978e+01  7.0523721732268925e+01  6.8675163620600927e+01  7.9654160990344877e+01  8.0139727701395159e+01  7.9806353568674709e+01  8.0149890302244472e+01  7.9006419742179219e+01  7.9588842973666843e+01  7.6445814545423573e+01  7.6444454725234891e+01  7.5573957233917028e+01  7.7140909253928967e+01  7.5746023983263370e+01  7.6351376851794853e+01  7.5817422321656807e+01  7.6708688425351113e+01  7.7235697946607260e+01  7.7387603929856468e+01  8.0719710724687971e+01  8.0178823650309482e+01  8.0885272107633412e+01  8.0877087892137126e+01  8.1408988499865714e+01  7.9492170277362419e+01  7.9474401204453287e+01  7.9892843781685329e+01  8.0120853078726213e+01  8.0447988479862133e+01  8.2845833146790909e+01  8.1228731249887389e+01  8.2090721662735021e+01  8.2262384443894533e+01  8.2318173343887864e+01  8.5178536386905705e+01  8.2753114606116824e+01  7.8978465700799632e+01  7.6844538238306527e+01  7.7661661494919542e+01  8.0065909664432510e+01  7.9497091182238790e+01  7.5967700267015147e+01  7.7890248903654836e+01  7.6041258685706040e+01  7.8380897144550332e+01  7.2549895371180455e+01  7.6565630517278734e+01  7.2892959555518232e+01  7.7896862335966503e+01  7.9264135216046483e+01  7.9705174222547541e+01  7.7281168238904911e+01  7.5061397679857222e+01  7.8563688857910719e+01  7.8643463451964124e+01  7.8429668610849930e+01  7.8765879895830125e+01  7.8804720480742290e+01  7.8683252385689741e+01  8.1440864768753201e+01  8.1071964793211677e+01  8.1688827511729386e+01  8.1780751252343094e+01  8.1854065107858773e+01  8.1509903842441361e+01  7.9071389955546451e+01  7.9376596931549784e+01  7.8097889104989179e+01  8.0322498917151805e+01  7.8378240913887581e+01  7.9641548137533292e+01  8.4073070823387738e+01  8.3621081867288794e+01  8.4108443497824553e+01  8.3558759811604816e+01  8.4648828989052390e+01  8.4050740916985745e+01  8.4616886632931212e+01  8.2797074147125116e+01  8.3148260612180877e+01  8.2731870692541690e+01  8.3280618027574292e+01  8.2236066301185815e+01  8.2396272234602918e+01  8.1942038972600173e+01  8.6368564124616924e+01  8.6564972836080855e+01  8.7459717868780473e+01  8.5501297579146907e+01  8.5150352950559693e+01  8.5381568063059760e+01  8.7157978263041372e+01  8.6216245769759638e+01  8.2381533517061413e+01  8.2474448248524155e+01  8.1843729391108496e+01  8.2861663115690760e+01  8.2397316751830317e+01  8.1578815229945135e+01  8.2116712312548813e+01  8.3363413251373458e+01  8.3015307672847456e+01  8.1645494858010252e+01  8.1041129881666606e+01  8.1241587099082025e+01  7.6931648146545896e+01  7.7501434807997384e+01  7.7736987312872870e+01  7.7102042119415884e+01  7.7361784368819102e+01  7.6332353338390405e+01  7.6444753987805470e+01  7.6221572620343309e+01  7.8014551132391375e+01  7.7873452193260221e+01  7.8352608961609548e+01  7.8049894948189703e+01  7.9559996832253915e+01  8.0552657397666110e+01  8.0578759029465488e+01  7.9932798426592569e+01  7.7575279584281887e+01  7.9728710659636192e+01  7.8180407928823797e+01  8.1137893487956447e+01  8.1117828355873826e+01  8.0724834750058349e+01  8.0483180667376658e+01  7.9613013454686737e+01  7.9953690917461145e+01  8.0056227390782212e+01  8.0626830532027753e+01  8.1225997647940332e+01  8.0875140178966902e+01  7.9220732319870507e+01  7.9155628249257589e+01  7.8781786634335546e+01  8.0096724229060882e+01  7.9383431653594172e+01  7.4331923986935536e+01  7.4975766990125720e+01  7.4775255954460008e+01  7.3536345124420478e+01  7.3952681113484331e+01  7.3431214476634480e+01  7.5293756824888106e+01  7.8770917326332551e+01  7.5644748874609490e+01  7.3394557377194232e+01  7.3917641735419778e+01  7.2871608738388304e+01  7.9233364589735970e+01  8.0259805494486898e+01  8.4656172878839854e+01  8.4739675663509061e+01  8.5385654676406403e+01  8.4051465060710029e+01  8.4111517354024343e+01  8.4490862661966986e+01  8.3885946447737723e+01  8.5372608675687815e+01  8.3413050532155808e+01  8.2093943655293941e+01  8.1890597424609950e+01  8.2752548954694959e+01  8.3503128964799956e+01  8.4903248035730982e+01  8.5023699212629808e+01  8.3774982513985009e+01  8.1108657629975582e+01  8.0642850824811262e+01  8.1948354595372564e+01  8.1588709049456043e+01  8.2746346956559066e+01  8.0691149200089768e+01  8.0201230541456965e+01  8.5561483419244894e+01  8.4826626643982763e+01  8.6151959722937804e+01  8.4625488635061672e+01  8.5919948405758390e+01  8.4308523756555459e+01  8.5802789526864572e+01  8.4176236154266235e+01  8.3943662967558538e+01  8.7760553282764576e+01  8.7655270135965822e+01  8.2865310476172397e+01  8.2827959297612793e+01  8.2332986395661649e+01  8.3276802447919920e+01  8.2873192719112467e+01  8.3344788371081577e+01  8.2546552472235604e+01  8.1969403599736637e+01  8.2123235639559582e+01  8.2353177658374321e+01  8.2168535404153403e+01  8.2833740396885801e+01  8.2738638990615897e+01  8.2619590730136636e+01  8.1844820229284579e+01  8.1586797625445314e+01  8.1803277608498064e+01  7.4400601316190262e+01  7.2549449357241770e+01  7.3008050593959254e+01  7.4759989896262070e+01  7.3085497840352517e+01  7.5107696622990360e+01  7.5411816231602941e+01  7.1433379625433076e+01  7.0739889089485985e+01  7.1809567210709673e+01  7.3069657957870646e+01  7.4105874383717520e+01  8.2587255278741040e+01  8.3080233810632677e+01  8.2726456253234687e+01  8.2837434697171872e+01  8.2336418321900439e+01  8.2074802963702240e+01  8.2257984024405047e+01  8.2563497951133826e+01  8.3121836947081135e+01  8.3643037993476199e+01  8.3269936441713583e+01  8.3426843841715538e+01  8.2795308159966538e+01  8.2469968797288871e+01  8.1294643722876330e+01  8.1412782034159008e+01  8.1556352786651374e+01  8.1167488140035474e+01  8.3692601867661764e+01  8.3954797573377761e+01  8.3902775133675107e+01  8.3601037598765686e+01  6.8628657282193331e+01  6.7812113918404677e+01  6.9830271605806487e+01  6.8115754250252436e+01  6.9923073322823413e+01  6.9354205237351451e+01  6.8042655534476509e+01  6.7097781966333301e+01  6.7253386731980669e+01  7.2113113856942675e+01  7.2184559734736510e+01  7.1810496767694630e+01  7.1165440968317100e+01  7.1980886450254928e+01  7.1170333470642120e+01  7.2404501004042501e+01  7.2861729028665692e+01  7.2128877492896422e+01  7.1916708140066049e+01  7.0593043772899051e+01  7.2608187103027817e+01  7.3115308228331983e+01  8.2286118007314371e+01  8.2440758894001377e+01  8.2093388633233729e+01  8.2755117161578625e+01  8.1911537188612627e+01  8.1871493886150063e+01  8.2298663636603479e+01  8.2624421620409180e+01  8.2192954633683826e+01  8.2484105596795558e+01  8.2693779240685785e+01  8.2768795526073518e+01  8.1812209451920822e+01  7.4860755791594528e+01  7.2913140619888040e+01  7.5548739160162711e+01  7.6405264416077657e+01  7.7121363342578178e+01  7.7751033166336555e+01  7.6098474171783295e+01  7.4864909452340498e+01  6.9692484211857050e+01  6.8788650175630437e+01  8.6051822261956289e+01  8.6291690139744190e+01  8.6534506266998974e+01  8.5856771454153716e+01  8.5676474560704364e+01  8.5827421318775194e+01  8.6349528227728754e+01  7.9365640847588224e+01  7.8951025455485322e+01  7.9720822278058804e+01  7.8863576002454948e+01  8.0230803546269399e+01  7.9721705842107028e+01  7.9272960569677622e+01  8.0131172788394124e+01  7.9041046695349678e+01  7.9457737134249797e+01  8.0016571516448806e+01  8.1255682540073835e+01  8.2311649838250617e+01  8.1650509141395545e+01  8.0900328951905450e+01  7.5866094044063942e+01  7.7559102373906214e+01  7.6794464352808106e+01  8.0875943552945500e+01  8.0913987942221084e+01  8.3000000000000000e+01  8.0454349717679534e+01  8.2035468244352487e+01  8.1006037662266564e+01  8.0934673535883249e+01  7.9703572192305231e+01  7.8227653550093365e+01  7.8490741766847023e+01  7.6283341511389295e+01  8.2682714104694284e+01  8.2691989595502037e+01  8.3230347717013288e+01  8.1913235382476685e+01  8.3230385269167527e+01  8.1865041137721676e+01  8.2609537456430218e+01  8.2125109462542298e+01  8.1805646239573221e+01  8.1906138086782818e+01  8.2283592209410116e+01  8.2250701248041082e+01  8.2568482343835015e+01  8.1526137377879721e+01  8.1176065082383786e+01  8.1877622024974997e+01  8.1452365138778390e+01  8.1484979553472144e+01  8.1958208044206671e+01  8.5699922012337566e+01  8.5399515476236573e+01  8.5733474028327734e+01  8.5293910500259585e+01  8.5008882807707110e+01  7.4550160133824875e+01  7.5361611396538208e+01  7.5548663557195155e+01  7.4244072061632053e+01  7.4640816319108410e+01  7.3744930010402243e+01  7.3416448276665946e+01  7.3254308749557353e+01  8.2724380085976620e+01  8.1922070072879507e+01  8.1385201179090274e+01  8.3303447750135220e+01  8.2031890489911518e+01  8.4451726122900098e+01  8.3328906706689565e+01  8.0749513489098987e+01  8.1065473234926429e+01  8.2105639270410961e+01  8.1312046073711130e+01  8.0291269160095041e+01  8.4187739130548636e+01  8.4369911798606068e+01  8.4663808152497339e+01  8.4012405980100255e+01  8.4299106239890961e+01  8.3916694938030162e+01  8.4764497221116898e+01  8.4561635019300425e+01  8.4187856570608076e+01  8.4976802910636778e+01  8.4961798183754155e+01  8.4754669096439045e+01  8.3964459788341316e+01  8.4389146107975208e+01  7.6884679832320401e+01  7.7599943195886013e+01  7.7368505922741107e+01  7.7046685647166072e+01  7.5990188534524918e+01  7.6301442463684225e+01  7.6044424153854237e+01  7.7908225282372641e+01  7.8225733286098830e+01  7.7982145214198155e+01  8.0645946305301607e+01  8.3308095894499303e+01  8.2120519356326028e+01  8.3035292941590939e+01  7.7635381149385921e+01  7.8552359176360127e+01  8.0370435951435198e+01  8.0738786814272444e+01  8.1086012419809947e+01  8.0203956940473887e+01  8.0749969888173055e+01  8.0982116761349971e+01  8.1342254843613304e+01  7.6997059165785785e+01  7.7500683811677149e+01  7.4052729652650143e+01  7.8162902687001804e+01  7.2955382452372888e+01  7.5181736956125278e+01  7.7996828837762592e+01  7.6281395168625011e+01  7.8519892499923102e+01  7.8277233994275548e+01  6.9797070884906873e+01  7.3197254832146896e+01  7.7007711790896067e+01  7.7746595673973005e+01  7.7138086943544181e+01  7.6184105123113966e+01  7.5874598404111339e+01  8.7242473790447747e+01  8.7208617679462435e+01  8.7811375008316631e+01  8.6587791381081772e+01  8.7360128401929316e+01  8.6797460558035766e+01  8.7270849411970914e+01  8.7311691567121670e+01  8.7444433236489502e+01  8.7183350791990932e+01  8.7276339744770553e+01  8.7299163728394262e+01  8.7098087989999385e+01  8.7532613591202036e+01  8.6934246340233258e+01  8.7201252789020074e+01  8.7476170869874451e+01  8.7756578953935517e+01  8.2385366599832281e+01  8.2329290933175045e+01  8.1349112189099031e+01  8.2753630423189492e+01  8.2081606826825421e+01  8.2419406194038430e+01  8.1260307437169189e+01  8.2630145365582678e+01  8.3099907824400688e+01  8.1991400020192657e+01  8.1474200819730598e+01  8.0633830185702195e+01  8.0590383179372353e+01  7.0391885946178363e+01  7.4560219561207902e+01  7.5434412122742984e+01  7.4822812738018882e+01  7.5073813108398156e+01  7.3414367054109448e+01  7.3195876000548836e+01  7.4058885430696947e+01  7.5571263258386438e+01  7.5962137121010400e+01  7.6129075273468942e+01  7.3941186761713652e+01  7.5366712162597238e+01  7.4437644422767022e+01  9.7862995801126573e+01  9.4569219256161659e+01  9.3835352592493535e+01  1.0600000000000000e+02  9.5288271961015397e+01  9.3769392905317176e+01  9.1562976645034922e+01  9.2136858041403059e+01  9.1707818060047103e+01  9.7377664136674909e+01  9.0625004674253091e+01  9.0123253579031271e+01  8.9158215790685617e+01  9.1448542018423751e+01  9.0049004923459194e+01  8.9199489801399636e+01  9.1542322152486335e+01  9.2557569849763652e+01  8.1330385800132788e+01  8.0873197522770269e+01  7.6732382960452554e+01  7.7713169008426561e+01  7.6589075356873465e+01  7.7543084997849618e+01  7.5936749590872239e+01  7.5801123337399105e+01  7.6807244857803056e+01  7.7493821428833513e+01  7.8410479586690329e+01  7.8768243565995391e+01  7.8360806533367594e+01  7.5780900978622782e+01  7.5884712251137103e+01  7.6713722243656434e+01  7.6761925193564025e+01  7.5879335739329306e+01  7.5231956807922032e+01  7.7420091075430946e+01  7.6518566150698945e+01  7.7317573728847478e+01  7.7641208760336184e+01  7.6022040968019866e+01  7.6501436387559608e+01  7.7550874071310133e+01  7.4747984219910180e+01  7.6090321999799528e+01  7.5255545314854302e+01  7.7896385914001996e+01  7.5869655668133518e+01  7.7349985559055000e+01  7.8130031593920535e+01  7.8605632884191166e+01  8.6501140415355692e+01  8.7690110802874798e+01  8.5612538530393564e+01  8.9070463804824996e+01  8.8782777416019243e+01  8.7471107809667373e+01  8.4685674315521297e+01  9.2000000000000000e+01  8.4865132879477358e+01  8.9639963717548966e+01  7.9317412885187167e+01  8.1604917367683584e+01  8.0229128609849823e+01  8.5802009078144778e+01  8.3446522593965838e+01  7.7880384956133426e+01  7.7830861698110397e+01  7.7493228260650568e+01  7.8581899743411185e+01  7.6866509636431445e+01  7.8038551009688533e+01  7.7426708520312687e+01  6.9832762587195376e+01  6.8334043564006620e+01  7.0375711279195826e+01  6.7634603612379763e+01  7.2292212727399473e+01  7.3027044730246715e+01  7.2549031500366965e+01  6.7283322373235691e+01  6.6791490847431660e+01  6.2043662710515349e+01  6.3175200227822998e+01  6.1682546327058006e+01  6.6833794932117982e+01  5.8183844838988200e+01  6.5031185572160453e+01  6.3370042470796882e+01  6.6377992889684762e+01  6.4370544691867821e+01  6.7568750870012579e+01  6.7576546702658661e+01  6.6784019606786259e+01  6.8217649086712839e+01  6.7958831230586242e+01  6.8173229557766035e+01  6.7252167774169621e+01  6.9086925588652065e+01  6.9398190751117852e+01  6.7370689984703418e+01  8.3882698745193949e+01  8.3789940315565474e+01  8.4588278762861464e+01  8.4320096463456821e+01  8.3494831611127779e+01  8.3149344412393461e+01  7.1770029160306436e+01  7.2546162826383863e+01  7.1711676293026699e+01  7.2660277012520041e+01  7.0682680659765197e+01  7.1453040154095419e+01  7.0639636587994133e+01  7.2625661213193823e+01  7.4165712823542080e+01  7.3534973140022714e+01  7.1881347205905413e+01  7.0539522229583369e+01  8.8974002437331691e+01  8.9374722471673138e+01  8.8561067066847912e+01  8.9645940859687599e+01  8.8790848841496697e+01  8.8492001674184678e+01  8.8976348205032807e+01  8.9406354235150744e+01  9.0106670491235107e+01  7.8572874285094031e+01  7.9449103475352672e+01  7.8496510590638778e+01  7.9518939747464060e+01  7.8448047542629311e+01  7.8205520118590314e+01  7.7803573172252953e+01  7.8501549659508242e+01  7.3829647715434831e+01  7.3544707986309916e+01  7.6395482189342488e+01  7.2242919265757493e+01  7.7022189808628923e+01  7.4718600084141315e+01  7.5602270623790460e+01  7.7018824499405440e+01  8.0059097181710726e+01  8.0146003822380337e+01  7.9343580537050116e+01  8.0468178317572935e+01  7.9778538532098722e+01  7.9696077399119105e+01  7.8815301381593699e+01  7.9229591531959755e+01  8.0401623373489443e+01  8.0840665056699308e+01  7.9994734354359082e+01  7.8173224117293131e+01  8.3711830996063426e+01  8.4191368450381361e