<?xml version="1.0"?>
<VTKFile type="UnstructuredGrid"  version="0.1"  >
<UnstructuredGrid>
<Piece  NumberOfPoints="60" NumberOfCells="166">
<Points>
<DataArray  type="Float64"  NumberOfComponents="3"  format="ascii">0.22293058 -0.49968055 -0.83703119  -0.17871778 -0.49333411 -0.85128242  -0.37542525 -0.14225766 -0.91587037  0.41157657 -0.72193778 -0.556247  0.19853516 -0.9361674800000001 -0.29012811  0.84751403 -0.52907634 -0.04240569  0.73912424 -0.51868695 -0.42972025  0.43850514 -0.15385152 -0.88546205  0.75664991 -0.17243032 -0.63067305  0.6289694300000001 -0.74815804 0.21132247  0.30347744 -0.94898587 0.0855993  0.28489485 -0.54959691 0.78535217  0.62077832 -0.54730117 0.56133366  0.97062433 -0.19699152 0.13814011  0.83273727 -0.20222756 0.5154147100000001  -0.03439669 -0.75075191 0.65968806  -0.02572841 -0.94997877 0.31125325  -0.68088585 -0.5256443 0.50999278  -0.36761704 -0.53581387 0.76010603  -0.15568012 0.20317107 -0.96668768  -0.24489762 -0.19681381 0.9493627  -0.66621846 -0.7286719699999999 0.15871401  -0.33905616 -0.93877596 0.06115915  -0.19951271 -0.93264794 -0.30060336  -0.38958105 -0.7164155800000001 -0.57877034  -0.70739847 -0.15345097 -0.68995672  -0.71661639 -0.50075305 -0.48549715  -0.85508788 -0.50734621 -0.106886  -0.87868327 -0.18046372 0.44198251  -0.98415816 -0.1684573 0.05526903  -0.22293058 0.49968055 0.83703119  0.17871778 0.49333411 0.85128242  0.37542525 0.14225766 0.91587037  -0.41157657 0.72193778 0.556247  -0.19853516 0.9361674800000001 0.29012811  -0.84751403 0.52907634 0.04240569  -0.73912424 0.51868695 0.42972025  -0.43850514 0.15385152 0.88546205  -0.75664991 0.17243032 0.63067305  -0.6289694300000001 0.74815804 -0.21132247  -0.30347744 0.94898587 -0.0855993  -0.28489485 0.54959691 -0.78535217  -0.62077832 0.54730117 -0.56133366  -0.97062433 0.19699152 -0.13814011  -0.83273727 0.20222756 -0.5154147100000001  0.03439669 0.75075191 -0.65968806  0.02572841 0.94997877 -0.31125325  0.68088585 0.5256443 -0.50999278  0.36761704 0.53581387 -0.76010603  0.15568012 -0.20317107 0.96668768  0.24489762 0.19681381 -0.9493627  0.66621846 0.7286719699999999 -0.15871401  0.33905616 0.93877596 -0.06115915  0.19951271 0.93264794 0.30060336  0.38958105 0.7164155800000001 0.57877034  0.70739847 0.15345097 0.68995672  0.71661639 0.50075305 0.48549715  0.85508788 0.50734621 0.106886  0.87868327 0.18046372 -0.44198251  0.98415816 0.1684573 -0.05526903  </DataArray>
</Points>
<Cells>
<DataArray  type="UInt32"  Name="connectivity"  format="ascii">18 22 29 38  16 17 18 21  18 21 22 29  17 18 21 29  30 38 49 54  30 34 38 40  14 38 49 54  12 14 15 49  12 14 15 22  15 18 38 49  15 18 22 38  14 15 38 49  14 15 22 38  15 16 21 22  15 16 18 21  15 18 21 22  17 18 28 29  18 28 29 38  17 21 28 29  30 33 34 38  33 34 38 40  30 33 34 54  30 33 37 38  33 35 36 38  33 35 38 40  33 34 39 40  33 35 36 39  33 35 39 40  14 32 49 54  14 32 54 55  31 32 54 55  30 32 49 54  30 31 32 49  30 31 32 54  14 38 44 54  22 29 38 44  14 22 38 44  14 54 55 56  54 56 57 59  14 54 56 59  14 55 56 59  31 54 55 56  12 14 22 24  12 22 23 24  12 14 23 24  14 22 24 44  22 24 29 44  8 12 14 23  8 14 23 24  8 14 24 44  8 10 12 23  10 12 22 23  10 16 22 23  10 15 16 22  10 12 15 22  9 10 15 16  9 10 12 15  39 40 45 46  11 12 15 49  11 15 18 49  11 12 14 49  11 14 32 49  17 18 20 28  18 20 28 38  20 28 37 38  18 20 38 49  20 30 38 49  20 30 37 49  20 30 37 38  35 38 40 42  35 38 42 44  35 39 40 42  39 40 42 45  29 38 43 44  35 38 43 44  28 29 38 43  24 26 29 44  8 13 14 59  0 8 23 24  0 8 10 23  8 48 58 59  8 13 58 59  40 45 46 52  40 42 45 52  52 54 57 59  42 44 52 54  42 44 45 52  8 48 52 59  8 45 48 52  14 52 54 59  14 44 52 54  8 44 45 52  8 14 52 59  8 14 44 52  21 27 28 29  24 26 27 29  21 24 26 27  17 21 27 28  21 22 27 29  22 24 27 29  21 22 24 27  24 25 26 44  1 24 25 26  25 26 29 44  3 5 9 10  3 5 8 10  5 9 10 12  5 8 10 12  5 8 12 14  5 8 13 14  0 4 10 23  0 3 4 24  0 4 23 24  3 4 8 10  0 3 4 8  0 4 8 10  3 4 9 10  8 19 24 44  0 8 19 24  8 19 44 45  19 42 44 45  19 41 42 44  19 41 42 45  8 19 45 48  19 41 45 48  47 48 58 59  40 46 52 53  30 34 53 54  30 34 40 53  42 52 53 54  40 42 52 53  30 38 53 54  30 38 40 53  38 40 42 53  38 44 53 54  38 42 44 53  42 44 53 54  45 46 48 51  45 46 51 52  45 48 51 52  46 47 48 51  48 51 52 59  47 48 51 59  51 52 57 59  51 57 58 59  47 51 58 59  47 51 57 58  51 54 56 57  51 52 54 57  3 5 6 8  3 5 6 9  0 1 2 24  0 2 19 24  0 1 2 19  1 2 24 25  2 24 25 44  2 19 24 44  2 19 41 44  0 3 7 8  0 8 19 50  0 7 8 50  0 7 19 50  8 19 48 50  8 48 50 58  7 8 50 58  47 48 50 58  </DataArray>
<DataArray  type="UInt32"  Name="offsets"  format="ascii">4 8 12 16 20 24 28 32 36 40 44 48 52 56 60 64 68 72 76 80 84 88 92 96 100 104 108 112 116 120 124 128 132 136 140 144 148 152 156 160 164 168 172 176 180 184 188 192 196 200 204 208 212 216 220 224 228 232 236 240 244 248 252 256 260 264 268 272 276 280 284 288 292 296 300 304 308 312 316 320 324 328 332 336 340 344 348 352 356 360 364 368 372 376 380 384 388 392 396 400 404 408 412 416 420 424 428 432 436 440 444 448 452 456 460 464 468 472 476 480 484 488 492 496 500 504 508 512 516 520 524 528 532 536 540 544 548 552 556 560 564 568 572 576 580 584 588 592 596 600 604 608 612 616 620 624 628 632 636 640 644 648 652 656 660 664 </DataArray>
<DataArray  type="UInt8"  Name="types"  format="ascii">10 10 10 10 10 10 10 10 10 10 10 10 10 10 10 10 10 10 10 10 10 10 10 10 10 10 10 10 10 10 10 10 10 10 10 10 10 10 10 10 10 10 10 10 10 10 10 10 10 10 10 10 10 10 10 10 10 10 10 10 10 10 10 10 10 10 10 10 10 10 10 10 10 10 10 10 10 10 10 10 10 10 10 10 10 10 10 10 10 10 10 10 10 10 10 10 10 10 10 10 10 10 10 10 10 10 10 10 10 10 10 10 10 10 10 10 10 10 10 10 10 10 10 10 10 10 10 10 10 10 10 10 10 10 10 10 10 10 10 10 10 10 10 10 10 10 10 10 10 10 10 10 10 10 10 10 10 10 10 10 10 10 10 10 10 10 </DataArray>
</Cells>
<PointData  Scalars="f_533"> 
<DataArray  type="Float64"  Name="f_533"  format="ascii">5.1000000000000000e+01  1.2394549166892274e+156  9.5404635905679737e+155  -1.2500707212826187e+156  3.7578465246570188e+156  -3.0569379470411991e+156  -3.9369793555108509e+156  -9.8872387130840820e+162  -6.5660030620278363e+156  5.0292078331573881e+155  3.1652333600053577e+156  -2.1101742119093154e+156  -2.8949109625053741e+156  9.0000000000000000e+01  4.9706989804709490e+155  -4.1607135591515004e+156  9.2000000000000000e+01  -1.6945772705153980e+155  -2.2966482205193795e+156  8.3000000000000000e+01  5.4000000000000000e+01  3.0311499995651498e+156  3.5830468296696625e+156  7.4428588453962598e+156  2.4929900890015774e+156  2.8685636909109255e+158  1.6898409181227077e+158  1.0600000000000000e+02  -3.0506903474593161e+155  1.9156316708371746e+156  5.1000000000000000e+01  1.2394549166197605e+156  9.5404635899776309e+155  -1.2500707205901032e+156  3.7578465239486761e+156  -3.0569379461310482e+156  -3.9369793542963474e+156  -9.1906597133274463e+162  -6.5660030601004065e+156  5.0292078340568953e+155  3.1652333595806783e+156  -2.1101742118259146e+156  -2.8949109621836713e+156  9.0000000000000000e+01  4.9706989819740679e+155  -4.1607135592580141e+156  9.2000000000000000e+01  -1.6945772746504694e+155  -2.2966482212651650e+156  8.3000000000000000e+01  5.4000000000000000e+01  3.0311499994900395e+156  3.5830468296813744e+156  7.4428588440171435e+156  2.4929900888657996e+156  2.8685636908707593e+158  1.6898409180984558e+158  1.0600000000000000e+02  -3.0506903518385821e+155  1.9156316708124681e+156  </DataArray> 
</PointData> 
</Piece>
</UnstructuredGrid>
</VTKFile>