<?xml version="1.0"?>
<VTKFile type="UnstructuredGrid"  version="0.1"  >
<UnstructuredGrid>
<Piece  NumberOfPoints="4122" NumberOfCells="8240">
<Points>
<DataArray  type="Float64"  NumberOfComponents="3"  format="ascii">-0.638350015710919 -0.2108171700654143 -0.7328931987811663  -0.6409084427336551 -0.1540243760279658 -0.7478677798581421  -0.6703444264835221 -0.1897497524532352 -0.707417628271729  -0.6071896439277324 -0.1967940860629138 -0.7636968908278305  -0.6797280521357481 -0.2445028139822628 -0.6810918947353037  -0.6126570029654218 -0.2482280375039654 -0.7404283956510693  -0.6436572931625224 -0.2754609256996981 -0.7060677877602928  -0.6717439632766726 -0.121180850563563 -0.7224564131951704  -0.6032400499072894 -0.1387009498626918 -0.7825481753753921  -0.6236157869748002 -0.0908897016612091 -0.7700838693309785  -0.7045439806376342 -0.2003739812803421 -0.6699306445940671  -0.7034534191081951 -0.1420182465585132 -0.6873056324529421  -0.6102830800373498 -0.2392196962316105 0.7456144434127079  -0.6525276427332664 -0.2374692907623588 0.7104686702782336  -0.6347072342474931 -0.1925251669906252 0.7421960306756884  -0.62065849682463 -0.2846219658975218 0.7207229076779891  -0.5929431114268269 -0.1961332260805571 0.7751130328142268  -0.5790703334193822 -0.2877971440788587 0.7521649738067009  -0.5681371646480184 -0.2432629225937167 0.7771735633646144  -0.6833285221291092 -0.1843765975599919 0.6960961349964513  -0.663086745631976 -0.2938864430796694 0.6824525438928566  -0.691759601822538 -0.2455054784791262 0.668750092989485  -0.6148763349626205 -0.1475729929613795 0.7738376740785369  -0.6598952897516596 -0.1424383865581315 0.7307943751045831  0.1873743554188882 -0.9246881986153397 0.3150724698987196  0.2282101333522764 -0.9064380001816263 0.3389421733461783  0.1728482357058065 -0.9101077570271128 0.3614059978686254  0.2260393806178413 -0.9265516009720804 0.2877246824890798  0.1164748778362939 -0.9249674919830984 0.3478316456537964  0.185983439358586 -0.9414813900600216 0.2672556598986793  0.130700494642327 -0.9452495668848312 0.2922992075843506  -0.7103329680910638 0.1616971473018187 -0.6761093366746126  -0.7233312884768557 0.2094338720023727 -0.6483399566013857  -0.7617290959585897 0.1824777880416563 -0.6164359191493958  -0.6878321000741795 0.2383794162447122 -0.6748825950025494  -0.6827249660245431 0.1151648298689662 -0.71246896462675  -0.7360916536397175 0.117845603015154 -0.658659543600445  -0.6718277855511099 0.1638763198576353 -0.7139402231020224  -0.6600501266777496 0.2164102146552038 -0.7094624455051177  -0.7424438644361233 0.2299667418866626 -0.6186803875095301  -0.7123418024188467 0.2645785577456268 -0.6407779120301  0.02198456114825754 -0.2685650574483968 0.9601489953486714  0.06673115463679442 -0.2595679545066062 0.9606869381960645  0.05198838493238304 -0.3006233368169068 0.9476777422062521  0.05901748951346274 -0.2078167728899866 0.9724384111219797  -0.007155189645973089 -0.3021018521904138 0.9496774532099725  -0.02073886018407432 -0.2516118044754164 0.9659295349288934  0.003426074224007335 -0.2037262136016427 0.9769257758989522  0.6871966628091096 -0.1126210840330485 0.7084173710025674  0.6845577106975862 -0.1904857530793499 0.6929766051575514  0.7285652723854019 -0.1675180601090814 0.6560758813576438  0.65661883792862 -0.1519703926165216 0.7324966028784328  0.7261248736167076 -0.097955759061957 0.6719111589974516  0.6616842962867973 -0.0889045572892519 0.7378465548804951  0.6877670984943306 -0.05792877421780269 0.7168794463008145  0.1386616837688841 -0.3399656976269755 -0.925718495155624  0.0723510264806779 -0.3700435609416949 -0.9208979078959816  0.08599485870567122 -0.3148242756489834 -0.9409991929036414  0.1353425530046822 -0.377828658593502 -0.9112187049845925  0.1879355488567537 -0.2938812990798237 -0.9327085435152209  0.1768143798051231 -0.359816599882298 -0.9098371989111866  0.1360827634879544 -0.2721655269759088 -0.9525793444156804  0.02789665408780722 -0.3467436419123271 -0.9334831544615088  0.05351412971731236 -0.4196259569888302 -0.9022176203308468  0.1094750629058407 -0.4078873014358596 -0.9021514394845264  0.8322783777817407 0.4190457632961611 0.3449077871907877  0.8244478150119569 0.4648263745361084 0.3139574912082962  0.8514485048680913 0.4281333393088875 0.2809722007041889  0.795747125028256 0.476758122306311 0.3610984540370916  0.854022383273463 0.4009676541314129 0.3145567251509399  0.804616552773604 0.430367180850548 0.3920432498699317  0.8299295698397661 0.3807594559066729 0.388425459242684  0.8565903647159223 0.3689715281841053 0.3408333339203094  0.8405342693473898 0.4646015435549518 0.2603938352300383  0.8019095386322266 0.5123517232474598 0.294779622197947  0.8704031277275812 0.389327136904125 0.2782665564746525  0.8671012073750721 0.4303195907934581 0.22508327983218  0.692142359398918 -0.6966446079660331 -0.1539593158843045  0.7111240052309927 -0.6652109889815907 -0.1943616894230869  0.7304023627778219 -0.6609628105624941 -0.1383481485986784  0.6682845326954987 -0.7055309148022877 -0.2025042946551774  0.7048139461326968 -0.6960257733759216 -0.08097929343270444  0.6430850120920366 -0.7397629189243069 -0.1733133504567458  0.6614857177312848 -0.7319550846086507 -0.1257801102628856  0.7500887795130777 -0.634076076376981 -0.169057347063751  0.6662253800267371 -0.6937402944019324 -0.2472636293377087  0.6931507491239471 -0.661018231089985 -0.2659972342216953  0.7468395646884776 -0.6213312391180354 -0.2124222876917561  0.760973493107144 -0.6357137842890918 -0.07746838739015663  0.7749140935482667 -0.6143632226991563 -0.1366750442992048  -0.8025632611142239 0.2456015197250303 0.5317685237084124  -0.7821421431647158 0.2212217955559446 0.5721735539101458  -0.8075984627938569 0.2026603161470644 0.5411215543590235  -0.749902779246395 0.2721603075385354 0.5893134408825551  -0.8221046860870378 0.2886283174636209 0.4837907034617052  -0.8291599906837457 0.2117974751924432 0.5035930019933492  -0.7874191995547095 0.2947317211683624 0.5308519103271829  -0.7924153478433859 0.1782528901045788 0.5747722507839339  -0.761338835251492 0.1959356494311164 0.6106005310889907  -0.8926753545248998 -0.06908227489427736 -0.4356291229885103  -0.8897664692167311 -0.1549295605108637 -0.42468927551228  -0.9087040141676512 -0.1227926965967185 -0.38760695683376  -0.8713970497313193 -0.1292208470556204 -0.4667384546936268  -0.8613404093391153 -0.04786536040195517 -0.4956721774183267  -0.8512792856644771 -0.09865449954785091 -0.5043917004443439  -0.888218801894753 -0.01535079081322778 -0.449420757968192  -0.9099681144765339 -0.06964387523532849 -0.3986393190125616  -0.9046866253817684 -0.03449355192219085 -0.417037901697301  0.9328949300627982 0.343902164903244 0.05563617895328869  0.9463591476771932 0.3130957039613698 -0.0002401767884000401  0.9251958734238404 0.3744297377508817 0.009238673352415983  0.9591759451566726 0.2668453343802368 0.04984854452365381  0.9039883604576593 0.4180248555635542 0.0374103577140084  0.9105863751353936 0.3913388446171079 0.09098437959346814  0.948311974044584 0.2877508499583804 0.1184397128620862  0.9210371374613409 0.3526387767256866 0.1359169859085739  0.9286337213425313 0.3578638792198651 -0.04421869504427015  0.9637995971791351 0.2567312902855908 -0.02801379583343151  0.9458285424214388 0.3054178320913965 -0.05618940764127323  0.8956724735187654 0.4328270891940724 -0.04271411037612916  0.5074213491668194 -0.0468493194092655 0.8550329031792893  0.4472814014755117 -0.01486388107366428 0.8894050034555063  0.517522155156281 0.006624028348575246 0.8518179648042107  0.4548944907181742 -0.0563415256529799 0.8829540974746424  0.552351958905144 -0.006677945603253447 0.8326735213467111  0.4768654997398522 -0.09020542266253144 0.8691526643050538  0.5222541172739451 -0.0969285548613496 0.8400451825320457  0.5643667984611103 -0.04475276735546552 0.8199252259909099  0.4494741537511427 0.02903918948082397 0.8874219541612416  0.3862977383640136 0.01676512835847919 0.9203704957341106  0.3917821805669265 -0.0436301380664028 0.9153937014207429  0.4843799811748834 0.04696233646652746 0.8675080327706406  0.5567353293580306 0.03449468270966791 0.826179816951235  0.9895891269292989 -0.0143540612233151 0.1298661110374067  0.9820897013319252 0.01021571285469657 0.172881830201394  0.985749040492971 0.06896848326803597 0.1342564021431578  0.9784816569638828 -0.04047572491676789 0.1835516774106033  0.982198055504137 -0.0803380161932722 0.1504809712940866  0.991640847301128 -0.04949163386809669 0.0942092924765954  0.9941955585177151 0.01515957762731215 0.08964182499593561  -0.263917261553053 -0.5152584243343904 0.808389539139178  -0.2062987569833823 -0.5400638978531883 0.8073407003257733  -0.2364136228405426 -0.5912939150501699 0.7615414606649185  -0.2196469782601695 -0.4762900018018873 0.8445388902319242  -0.2726702705688979 -0.4433828955601331 0.8467941635623514  -0.3145192744991474 -0.4793060037146238 0.8175089352582283  -0.3041731760933809 -0.5464244259007136 0.7717228602728937  -0.3409654630357329 -0.5103293364288519 0.7837536454111245  -0.136347755901647 -0.5275692051676103 0.831418288732138  -0.1752517229549649 -0.5912276631731397 0.7827037898282259  -0.1710452903507383 -0.4928067672796685 0.8464607320399977  -0.643032982995124 -0.3259902666796838 -0.6879102685643058  -0.6975423667299644 -0.3052100822134856 -0.640529215777074  -0.669621879832889 -0.3605467931744174 -0.6437412798323021  -0.5972979813222472 -0.3993444711759279 -0.6845056310089221  -0.5794364087461926 -0.3713948360491016 -0.7135829966137013  -0.6396801041414799 -0.3954828830538664 -0.6480800507788191  -0.597074881592216 -0.33174764394537 -0.7215010458100828  -0.6049280133946591 -0.2900223641357231 -0.7310659595231012  -0.638465116355087 -0.09664266679061465 0.7575641562599047  -0.5972185780573405 -0.1003332479233992 0.7911561544348713  -0.648583429436117 -0.04836484484459522 0.7521741705239176  -0.6768566283241697 -0.07825229147065037 0.7244334593487736  -0.5656791316261949 -0.1596876350703909 0.8029585728297858  -0.5487257506356558 -0.11
[...]
<PointData  Scalars="f_48"> 
<DataArray  type="Float64"  Name="f_48"  format="ascii">8.3172959736668304e+01  8.3173929462360348e+01  8.3180983551323195e+01  8.3164966408933111e+01  8.3183734547396242e+01  8.3165491413579261e+01  8.3174229577591888e+01  8.3181457490161037e+01  8.3164887249887926e+01  8.3169656227093526e+01  8.3190217199141770e+01  8.3189848227166664e+01  8.2941068085491708e+01  8.2967364195268658e+01  8.2954815027488877e+01  8.2949975687483629e+01  8.2929788042495474e+01  8.2921974499605426e+01  8.2913795272458898e+01  8.2981062912022978e+01  8.2978580658282638e+01  8.2990643096252683e+01  8.2943190080380148e+01  8.2966024777435251e+01  8.3016364714586771e+01  8.3029304969460938e+01  8.3023812057959802e+01  8.3022318740846643e+01  8.3046876617905397e+01  8.3011171969086760e+01  8.3022069437120720e+01  8.3192650671178441e+01  8.3196378857450583e+01  8.3208699026958186e+01  8.3185632104826865e+01  8.3185017272688924e+01  8.3200374877602172e+01  8.3182028255575631e+01  8.3178392989309657e+01  8.3202305558222420e+01  8.3192249240618509e+01  8.2973872542223290e+01  8.2997714923887514e+01  8.2996435985753692e+01  8.2982477800788558e+01  8.2960679242620216e+01  8.2924971609385082e+01  8.2949840804066369e+01  8.3242028654352126e+01  8.3239897623613103e+01  8.3254577115330150e+01  8.3232617446837054e+01  8.3254728121775798e+01  8.3234987187440879e+01  8.3243027098403800e+01  8.2700950783396053e+01  8.2909016089678843e+01  8.2862696861335749e+01  8.2711040590376626e+01  8.2691164586662623e+01  8.2652692294729093e+01  8.2715259861429701e+01  8.2995126642610586e+01  8.2971180765722210e+01  8.2802120414189204e+01  8.3323137488862187e+01  8.3328206747485467e+01  8.3344686185561713e+01  8.3307309274076204e+01  8.3335319877275182e+01  8.3305645605076478e+01  8.3313447328730348e+01  8.3328698470167637e+01  8.3349433401063308e+01  8.3322767553586672e+01  8.3346553382175699e+01  8.3367826587860961e+01  8.3132762328022366e+01  8.3133667442786987e+01  8.3152404546386151e+01  8.3114088868630063e+01  8.3151668314435994e+01  8.3108784034904360e+01  8.3124895453704667e+01  8.3155734975493715e+01  8.3105086710111280e+01  8.3112948585914452e+01  8.3146264782410412e+01  8.3177465475665656e+01  8.3172960431879261e+01  8.3047992245561389e+01  8.3033372858665857e+01  8.3048493948645941e+01  8.3016510574987009e+01  8.3064219077640217e+01  8.3063377156141186e+01  8.3041718293170234e+01  8.3037415378816263e+01  8.3019405201797937e+01  8.3250648289733377e+01  8.3247474411411261e+01  8.3254833610276037e+01  8.3241399590260770e+01  8.3239612916282240e+01  8.3235083433816186e+01  8.3251571326832178e+01  8.3257269088495065e+01  8.3257090186248746e+01  8.3359305202263300e+01  8.3339247358242631e+01  8.3356724769769912e+01  8.3343350148294292e+01  8.3388226663958008e+01  8.3386351296525945e+01  8.3354027824284060e+01  8.3370382676127676e+01  8.3332888741858525e+01  8.3325675542483424e+01  8.3321820020896524e+01  8.3348741716309689e+01  8.3192386622590206e+01  8.3176599688569638e+01  8.3195756034701205e+01  8.3178241752268931e+01  8.3206268379922179e+01  8.3184000610515838e+01  8.3195338218835332e+01  8.3208500948672693e+01  8.3177131477786205e+01  8.3161950635656993e+01  8.3162067748567736e+01  8.3186172474545216e+01  8.3206758327866552e+01  8.3387380658112320e+01  8.3381312524074929e+01  8.3362735151749888e+01  8.3402793005285801e+01  8.3431209696989271e+01  8.3395542730641679e+01  8.3370736418086437e+01  8.2672765674204612e+01  8.2700654491958076e+01  8.2713739551426357e+01  8.2662833351205364e+01  8.2624782512216882e+01  8.2687660106681406e+01  8.2712147476167075e+01  8.2722689815102470e+01  8.2775417007211090e+01  8.2749318184212314e+01  8.2715587127171446e+01  8.3174042318672363e+01  8.3189362658004299e+01  8.3182138950229188e+01  8.3159791503825232e+01  8.3154990990148931e+01  8.3172663579969310e+01  8.3160478322095472e+01  8.3162918316480727e+01  8.2953049324255574e+01  8.2931179681597897e+01  8.2956713872048780e+01  8.2972989800741161e+01  8.2911981091129434e+01  8.2901882462557850e+01  8.2914744163569836e+01  8.2944098435327518e+01  8.2583737563447201e+01  8.2732850472283644e+01  8.2633583318231075e+01  8.2764286706294172e+01  8.2491728929489625e+01  8.2535274704861763e+01  8.2700437665444966e+01  8.2922469177076053e+01  8.2844311180678091e+01  8.2571840256875447e+01  8.3096655345269127e+01  8.3079063174219201e+01  8.3097159520925416e+01  8.3062651101762270e+01  8.3116185906000766e+01  8.3114589845396182e+01  8.3076312286813533e+01  8.3105049598585836e+01  8.3099115711576331e+01  8.3069973274085328e+01  8.3044682355188726e+01  8.3212355481873871e+01  8.3217098376925492e+01  8.3194624378888889e+01  8.3234831151869088e+01  8.3192556476784645e+01  8.3205266823325630e+01  8.3223761880170116e+01  8.3205191227653643e+01  8.3222678706670564e+01  8.3240389218956679e+01  8.3231599063541765e+01  8.3114940544201986e+01  8.3096772417014805e+01  8.3188870149812857e+01  8.3083731775473467e+01  8.3149210821406868e+01  8.3110967153580532e+01  8.3095072810722087e+01  8.3165067818781779e+01  8.3076756887283011e+01  8.3092522498762079e+01  8.3205242211122879e+01  8.3235086509187582e+01  8.3216368277374158e+01  8.2976427805361496e+01  8.2952306993885699e+01  8.2972488663134882e+01  8.2951548047857870e+01  8.2987463063331390e+01  8.2967730951431705e+01  8.2989955661555157e+01  8.3006135696665510e+01  8.3456605954541160e+01  8.3734764912238290e+01  8.3365764940993358e+01  8.3544606981491071e+01  8.3082833550809241e+01  8.3368745656682464e+01  8.3149413460078904e+01  9.1999909766662569e+01  8.3104808237184002e+01  8.3369693723281827e+01  8.3278771188873307e+01  8.3249003471625414e+01  8.3074973528423982e+01  8.3669574413320646e+01  8.3280121678379402e+01  8.3265472314539082e+01  8.3276333022676980e+01  8.3278402966083874e+01  8.3299899838301783e+01  8.3297306369112050e+01  8.3257102585835952e+01  8.3249117391068765e+01  8.3263123168438995e+01  8.3270490804093342e+01  8.3285614067346060e+01  8.3237736230655898e+01  8.3260670381707158e+01  8.3250335627087040e+01  8.3249409473535408e+01  8.3216396703194974e+01  8.3220665302554622e+01  8.3230963340901823e+01  8.3271551353937014e+01  8.3279970132867433e+01  8.3265581179518492e+01  8.3186949669100017e+01  8.3176258902010048e+01  8.3181799106982979e+01  8.3195404494674307e+01  8.3171924966141020e+01  8.3166465223863284e+01  8.3158122432985735e+01  8.3052393288633979e+01  8.3192933258688853e+01  8.3032491445166286e+01  8.3298689153495872e+01  8.3027756451720890e+01  8.3532251792783654e+01  8.3235651935799680e+01  8.3768505240578321e+01  8.2971451437283804e+01  8.3005357861143736e+01  8.3008831857364882e+01  8.2991523481530393e+01  8.2981151029273548e+01  8.2947489017870723e+01  8.2931098936467905e+01  8.2943582501396989e+01  8.3032862538318696e+01  8.3019295432443158e+01  8.3212429046439951e+01  8.3203242941645314e+01  8.3196151019561796e+01  8.3210356198419902e+01  8.3215043790461252e+01  8.3225617672973073e+01  8.3199213511452129e+01  8.3191021483747818e+01  8.3189076858455138e+01  8.3339556412512962e+01  8.3354146517721844e+01  8.3368598820680944e+01  8.3324925668807282e+01  8.3346839537248542e+01  8.3319771271663953e+01  8.3315281727411062e+01  8.3354719039750435e+01  8.3338006756373957e+01  8.3407000306845944e+01  8.3376827340172326e+01  8.3214396354281803e+01  8.3234565488756516e+01  8.3234490932917282e+01  8.3230529871883732e+01  8.3213185093095376e+01  8.3207358290837789e+01  8.3197712853692025e+01  8.3210547247870025e+01  8.2940853049609601e+01  8.2957646383404850e+01  8.2943951864887950e+01  8.2997208518885998e+01  8.2931034293943057e+01  8.2995021395622402e+01  8.2966508355818760e+01  8.2973792074527253e+01  8.2958996435249290e+01  8.2955435259251317e+01  8.2936779084464035e+01  8.3126431527207302e+01  8.3130715623918789e+01  8.3136363673737677e+01  8.3117051862204676e+01  8.3131106423125772e+01  8.3116885064096550e+01  8.3108526750002312e+01  8.3137599530154048e+01  8.3119937368889154e+01  8.3143227215170825e+01  8.2890919495001128e+01  8.2862316493835564e+01  8.2870837596920481e+01  8.2879792132112485e+01  8.2896288167519174e+01  8.2918973773844044e+01  8.2912634166560608e+01  8.2917906095195278e+01  8.2885420142111869e+01  8.2876138049443270e+01  8.2858345236336760e+01  8.2855936212604291e+01  8.2884653402283988e+01  8.2907568802386493e+01  8.2999918593836867e+01  8.3020589343862952e+01  8.3041376494676143e+01  8.3022420441191983e+01  8.3021436129514683e+01  8.3056968043633660e+01  8.3073902765600749e+01  8.2862652654343293e+01  8.2886571064294657e+01  8.2862079348243000e+01  8.2842513507854136e+01  8.2827242716854556e+01  8.3158129270649610e+01  8.3138947490252434e+01  8.3144251184342949e+01  8.3148475089121931e+01  8.3163619201738868e+01  8.3181550452386972e+01  8.3169801061922541e+01  8.3176495371011924e+01  8.3126892485903340e+01  8.3117583895351203e+01  8.3123151467398600e+01  8.3131936279334781e+01  8.3163583081689524e+01  8.3140705065431618e+01  8.3209264493819489e+01  8.3199494942022284e+01  8.3209961814170754e+01  8.3182847876046338e+01  8.3230684049593563e+01  8.3209630743222377e+01  8.3185744117666729e+01  8.3226720775665754e+01  8.3244086151024348e+01  8.3234390537226062e+01  8.3255560958055568e+01  8.3235450026928135e+01  8.3245066497161659e+01  8.3249576827670609e+01  8.3257815641105523e+01  8.3221237841368847e+01  8.3222765326641479e+01  8.3234354450770851e+01  8.2993659411357854e+01  8.3002635414312152e+01  8.2981040508608757e+01  8.3013975424157266e+01  8.2986103190504181e+01  8.3007754576925635e+01  8.2992634621172186e+01  8.3010992410516280e+01  8.3024125641667112e+01  8.2969646120184066e+01  8.3383663568308990e+01  8.3508745655951500e+01  8.3391964203314458e+01  8.3309668209297271e+01  8.3158911994252932e+01  8.3142225857963140e+01  8.3260722392406109e+01  8.3395064531421298e+01  8.3185115061113336e+01  8.3240286551903935e+01  8.3645877947975890e+01  8.3441845783447761e+01  8.3093860527037364e+01  8.3477154016012946e+01  8.3018179260728829e+01  8.3216424030017535e+01  8.2981691865583869e+01  8.3024094109911147e+01  8.4159922753314049e+01  8.3828987058283332e+01  8.3161391263493314e+01  8.3166270708844493e+01  8.3140325008173150e+01  8.3171226700393944e+01  8.3146486170749995e+01  8.3190261953151747e+01  8.3192654656645331e+01  8.3168776838692395e+01  8.3155238186764720e+01  8.3032146896363713e+01  8.3029795797159295e+01  8.2988589750462225e+01  8.2982504989323331e+01  8.3061568135099392e+01  8.2837280707047228e+01  8.2819148499175981e+01  8.2805990249361813e+01  8.2868596829346757e+01  8.2810732813694798e+01  8.2872206238979089e+01  8.2874237954584743e+01  8.2778179680274491e+01  8.2845043891559968e+01  8.2811958979323776e+01  8.2785022293986287e+01  8.2762900690396336e+01  8.2780709461962516e+01  8.3092564521579632e+01  8.3071972635006034e+01  8.3087944266095377e+01  8.3071339806510593e+01  8.3118107767605622e+01  8.3107980714647567e+01  8.3091281879221057e+01  8.3050582536455281e+01  8.3048142424001796e+01  8.3266866631469810e+01  8.3302116779683089e+01  8.3159297444684114e+01  8.3198291731442851e+01  8.3231467482165655e+01  8.3192137056846221e+01  8.3257082786556495e+01  8.3201079535238890e+01  8.3360058967986078e+01  8.3039930974852425e+01  8.3011228631059240e+01  8.3111311897509793e+01  8.2839410844613013e+01  8.2845418086299674e+01  8.2835554537634621e+01  8.2864900881983218e+01  8.2821055194709615e+01  8.2815334702207366e+01  8.2850617365557312e+01  8.2824315898181368e+01  8.2869938657336732e+01  8.3200051159390370e+01  8.3196780319821485e+01  8.3209345915090864e+01  8.3232464399639483e+01  8.3230068006919240e+01  8.3190508080763948e+01  8.3200374942633545e+01  8.3184524162986065e+01  8.3183647413710844e+01  8.3131601251962820e+01  8.3141951492452236e+01  8.3143258804050433e+01  8.3131802736732510e+01  8.3135466947843852e+01  8.3117386854886604e+01  8.3117175163750773e+01  8.3156865491068928e+01  8.3144142674690954e+01  8.2973815871222811e+01  8.2968149201229451e+01  8.2946543707193115e+01  8.2990774681055612e+01  8.2956270422532086e+01  8.3001691660113437e+01  8.2989242613655350e+01  8.2977624440379898e+01  8.2949500167458368e+01  8.2925424708455338e+01  8.2925946694906997e+01  8.2939426617965083e+01  8.3188268758148482e+01  8.3181548029140899e+01  8.3192406827554919e+01  8.3176302987327361e+01  8.3169194062334483e+01  8.3175872236131724e+01  8.3212834242262517e+01  8.3122151755306234e+01  8.3108600768541379e+01  8.3106786716946445e+01  8.3108470122029658e+01  8.3119063195065550e+01  8.3132272209017643e+01  8.3139434316188570e+01  8.3132486957815544e+01  8.3094265146571445e+01  8.3098639619050203e+01  8.3079619964056519e+01  8.3071023101608802e+01  8.3079569223778975e+01  8.3084507872969553e+01  8.3064435801226651e+01  8.3102435233623922e+01  8.3056720109845600e+01  8.3113139706560759e+01  8.3089891602171591e+01  8.3063923335043285e+01  8.3087894021855192e+01  8.3063095739525693e+01  8.3062898094769622e+01  8.3103268996466156e+01  8.3088361898942054e+01  8.3057810878413747e+01  8.3026546178963756e+01  8.3078471238648447e+01  8.3042426522613354e+01  8.3110588847526614e+01  8.3109425333276519e+01  8.3121346846504082e+01  8.3097311436484929e+01  8.3129781906021989e+01  8.3095075227522628e+01  8.3107092057612533e+01  8.3119913339285787e+01  8.3006405326240298e+01  8.3018179039369073e+01  8.3002384475168995e+01  8.3035127840404442e+01  8.2981983927103343e+01  8.2998338649188014e+01  8.2971842107592707e+01  8.3024351139120441e+01  8.2770151637448492e+01  8.2778449530591772e+01  8.2833210263942547e+01  8.2672673025866288e+01  8.2807629654902485e+01  8.2689865934953218e+01  8.2753743229110853e+01  8.2804624160587693e+01  8.2788257512363202e+01  8.2700146672149046e+01  8.2876079763658595e+01  8.2866381396138237e+01  8.2837898660855132e+01  8.3083774819753145e+01  8.3069908463489924e+01  8.3049272908019532e+01  8.3256206913601474e+01  8.3260613100222386e+01  8.3186702031276667e+01  8.3257353905802873e+01  8.3220360288745141e+01  8.3215012217930195e+01  8.3155892365080319e+01  8.3158692115729409e+01  8.3238333985115403e+01  8.3312411964777397e+01  8.3165692375443712e+01  8.3087019808141392e+01  8.3041537901507056e+01  8.3032023025933228e+01  8.3048617080146059e+01  8.3021727147647482e+01  8.3059657748725158e+01  8.3065413132224961e+01  8.3041721996832067e+01  8.3013558974491559e+01  8.2912455444697756e+01  8.2926171796429799e+01  8.2928916861307528e+01  8.2923853669146553e+01  8.2899942367810354e+01  8.2907970359910820e+01  8.2947948816040011e+01  8.2932144396198680e+01  8.3351165099336768e+01  8.3358121967691545e+01  8.3329867420790123e+01  8.3390911106776315e+01  8.3324876630242443e+01  8.3332892822277486e+01  8.3371656497054502e+01  8.3236580467367332e+01  8.3253454708289937e+01  8.3223551659586008e+01  8.3252353979393618e+01  8.3220294013789186e+01  8.3236968587328789e+01  8.3244108819381211e+01  8.3265595692803387e+01  8.3228951151067747e+01  8.3275959499817191e+01  8.3292903261655525e+01  8.3379734160757181e+01  8.3306557774412539e+01  8.3358848479698693e+01  8.3261483222548947e+01  8.3245387817713151e+01  8.3303645135604555e+01  8.3268971386737405e+01  1.0599989603550250e+02  8.3367363145163324e+01  8.3318805567099218e+01  8.2974659557816480e+01  8.2973009269664445e+01  8.2948709138568034e+01  8.2984435860573583e+01  8.2914238138067603e+01  8.2978370084599931e+01  8.2995301379889639e+01  8.2930706915593987e+01  8.2973713043963102e+01  5.3999947036954111e+01  8.2492528313096670e+01  8.2577951436981579e+01  8.2409312749859069e+01  8.2498732173762107e+01  8.2659177700584237e+01  8.2724221467428791e+01  8.2614943142249800e+01  8.2682181052299839e+01  8.2692845246782113e+01  8.2553114246461718e+01  8.2642647624908548e+01  8.2626959330764890e+01  8.3297925890760453e+01  8.3301023220207298e+01  8.3289561974764737e+01  8.3309167156272025e+01  8.3286928740472561e+01  8.3297294358567726e+01  8.3285673989453343e+01  8.3298502329387816e+01  8.3316348845324825e+01  8.3316016685276054e+01  8.3280397682811824e+01  8.3276396010640326e+01  8.3280243984736742e+01  8.3230427664278167e+01  8.3230990049855734e+01  8.3238221077367299e+01  8.3224947250083972e+01  8.3223177186070842e+01  8.3109265607554363e+01  8.3101469712358892e+01  8.3095081808313850e+01  8.3133877600826750e+01  8.3121727680679356e+01  8.3095408149955219e+01  8.3072509620974827e+01  8.3072522281617296e+01  8.3086735153030673e+01  8.3096691166877193e+01  8.3113132443887025e+01  8.3114498628134484e+01  8.3050343311315373e+01  8.3063029119977429e+01  8.3082539680672369e+01  8.3054770261163867e+01  8.3042724243637679e+01  8.3087696160970864e+01  8.3068456887622560e+01  8.3084911521403328e+01  8.3051452525894462e+01  8.3103299754905322e+01  8.3116788404560879e+01  8.3087713978432419e+01  8.3121061931089955e+01  8.3057704966642689e+01  8.3072370056120917e+01  8.3048957977598917e+01  8.3029952298694013e+01  8.3087222077616332e+01  8.3268393145762545e+01  8.3279008493483190e+01  8.3275369493224375e+01  8.3274148559775554e+01  8.3270156249322113e+01  8.3263242195941586e+01  8.3260087848288848e+01  8.3262709098543894e+01  8.3282893600445178e+01  8.3299181393051995e+01  8.3287550954861970e+01  8.2719711107826498e+01  8.2565812971806849e+01  8.2554926417658393e+01  8.2691376638666512e+01  8.2723460119412294e+01  8.2875951355105201e+01  8.2911623472555760e+01  5.0999949979345544e+01  8.2448593808222057e+01  8.2552284913728258e+01  8.3070144025391414e+01  8.3052542311622560e+01  8.3056909464094318e+01  8.3057252782270382e+01  8.3073884382806071e+01  8.3082664781239998e+01  8.3075317416667374e+01  8.3043478646105186e+01  8.3037288394360544e+01  8.2964347560990461e+01  8.2992165462416096e+01  8.2999710364138451e+01  8.2957929548672169e+01  8.2985936490780944e+01  8.2967073633356151e+01  8.2941078200513928e+01  8.2938797514080633e+01  8.2893212269801580e+01  8.2897463761618155e+01  8.2864072335420161e+01  8.2923318281641301e+01  8.2912028898540257e+01  8.2877272494522487e+01  8.2923869172092623e+01  8.2940014117012453e+01  8.2875412798450739e+01  8.2860225839843494e+01  8.3111022105917215e+01  8.3133340293460336e+01  8.3112994851593811e+01  8.3131338328082791e+01  8.3087643745279948e+01  8.3091637392303241e+01  8.3110657025909404e+01  8.2958835936634074e+01  8.2933450562281848e+01  8.3043342189528587e+01  8.2823135337686736e+01  8.3086286152250878e+01  8.2901829403040082e+01  8.3008799244990229e+01  8.3108046795789704e+01  8.2974430884311460e+01  8.2869651545051298e+01  8.2808220929820891e+01  8.3083935347644697e+01  8.3092334599641177e+01  8.3075466432208231e+01  8.3097182396503356e+01  8.3059513916860041e+01  8.3060753141417180e+01  8.3087632977182835e+01  8.3274229653146534e+01  8.3284563852881149e+01  8.3277153200000924e+01  8.3280304720022002e+01  8.3268112470781134e+01  8.3270177173643475e+01  8.3264999102878235e+01  8.3292887905865598e+01  8.3286361968371139e+01  8.3301258164905846e+01  8.3278407191519364e+01  8.3263733054624083e+01  8.1748579024366293e+01  8.2563124494493209e+01  8.2497730785130656e+01  5.3999947036954111e+01  8.2832185458281160e+01  8.2590466260962231e+01  8.2719411770914846e+01  8.2677810429637518e+01  8.2586072440074460e+01  8.2588743214613984e+01  8.2686053365472574e+01  8.2730496870268851e+01  8.2731274913269445e+01  8.2720159088686131e+01  8.2645594379191579e+01  8.2641061849534879e+01  8.2762195942302398e+01  8.2753300270672355e+01  8.2739816286084078e+01  8.3222408801340620e+01  8.3218301409731112e+01  8.3228195748016546e+01  8.3209156673414725e+01  8.3235045367544757e+01  8.3229486688922918e+01  8.3213817351788151e+01  8.3221051209794808e+01  8.3207161303157221e+01  8.3238107475842796e+01  8.3249668132611163e+01  8.3248656966343049e+01  8.3239086683770751e+01  8.3234519759349283e+01  8.3248042062957779e+01  8.3255329966711926e+01  8.3131971084836422e+01  8.3137836030169453e+01  8.3133326495040265e+01  8.3119851421362839e+01  8.3064986304727967e+01  8.3034824309758108e+01  8.3122637915715643e+01  8.3098556164184856e+01  8.2737423700917176e+01  8.2753233817869457e+01  8.2752318181210953e+01  8.2744378175309251e