<?xml version="1.0"?>
<VTKFile type="UnstructuredGrid"  version="0.1"  >
<UnstructuredGrid>
<Piece  NumberOfPoints="230" NumberOfCells="456">
<Points>
<DataArray  type="Float64"  NumberOfComponents="3"  format="ascii">-0.99998999 -0.00399988 0.00199994  -0.93607759 0.12621707 0.32837197  -0.95000267 -0.24275914 0.19637455  -0.96573383 0.25948238 0.00521876  -0.9922883983447035 -0.1102302418562981 -0.02386536444430083  -0.89393294 0.2815997 -0.34869114  -0.9160453513937725 -0.04794809680508907 -0.3889623825653484  -0.96443313 -0.21101427 -0.1591908  -0.00049948 0.99898493 0.04504309  -0.28169212 0.95859379 -0.04180405  -0.1038812762722092 0.9889736242203511 0.07938336077891894  0.03991537582039123 0.9760965367569955 -0.196997458621147  0.11785752 0.95041883 0.28777412  0.1947576641555657 0.97538667829863 0.05630631967511263  0.21815184 0.96529853 -0.14355603  0.02494431 0.6144594 0.7885539499999999  0.16403137 0.28720394 0.9437201  0.1400208245366274 0.5817135143724509 0.7961873127284563  -0.06330158071237597 0.3406573658963055 0.9333743676428139  0.10850769 0.81606823 0.56767851  0.04193792192457597 0.7819306758569184 0.6127580599662379  -0.15335634 0.48859259 0.85892904  -0.1543033499620919 0.6172133998483678 0.7715167498104597  -0.59039032 -0.77985275 0.208012  -0.77437425 -0.61457777 0.15046185  -0.7411118847762687 -0.5547540793803686 0.3559984242675197  -0.623421337122261 -0.7709495070117249 0.07915322084456242  -0.44222176 -0.89561254 0.04814707  -0.2973100410625366 -0.9108154148809273 0.2802480976799059  -0.56061244 -0.62922853 0.53831679  -0.5144957554275266 -0.6859943405700354 0.5144957554275266  -0.36573517 -0.82799923 0.42503539  0.23735723 -0.5691511 0.78722847  0.48816177 -0.42692393 0.7612056699999999  0.4191484944139953 -0.2843992922598962 0.8546276739757488  0.5180394481425904 -0.5391333467328645 0.6578130565496338  0.1711715 -0.7508027 0.63796228  0.45601672 -0.6974324 0.55284446  0.1759992265600279 -0.5424008634441679 0.8136082256857189  0.12497177 -0.37524998 0.91846037  0.89393294 -0.2815997 0.34869114  0.82531255 -0.53441709 0.18236656  0.791520410889193 -0.4719371074349732 0.3732803093113146  0.9439078944424155 -0.2147430739068509 0.2286590417761427  0.7322976 -0.26231322 0.62843603  0.8805254583578179 -0.009694668466228939 0.4642087981017866  0.8959739799999999 0.02502822 0.44340074  -0.79665613 0.10245212 0.5956867300000001  -0.69784802 0.36849079 0.61418474  -0.919378706986574 0.09429617413852825 0.3680311746994384  -0.6972571008989636 0.05304247464378692 0.7081964230623552  -0.787018 -0.18293804 0.58918279  -0.23356465 0.91487938 0.32930726  -0.5117026 0.83323461 0.20947689  -0.3377220419579178 0.815266366424918 0.4641213817102968  -0.3968454721030129 0.9175599290387878 -3.462396679737041e-15  -0.23124145 0.75768822 0.61027521  0.03788612003846278 0.931462648022567 0.3510893541373687  -0.89079481 0.39080378 0.23185565  -0.8704635201251307 0.3916219220641931 0.2744673769813711  -0.5064300900000001 -0.83423322 -0.21813659  -0.34706694 -0.82521343 -0.44560948  -0.62027001 -0.65688628 -0.42867881  -0.2502693289741197 -0.9597915356554105 -0.1044266040342563  -0.6040599920411458 -0.7534261566299454 -0.2312759823757979  -0.45817986 -0.59716052 -0.6583848  -0.10850769 -0.81606823 -0.56767851  -0.397916874719636 -0.7824900334206879 -0.4630269822675852  -0.11785752 -0.95041883 -0.28777412  -0.29121652 -0.5080446 -0.81060714  -0.58993262 -0.29020479 -0.75349891  -0.1543033499620919 -0.6172133998483678 -0.7715167498104597  -0.5825131223250517 -0.4538697068309626 -0.6624329953426993  0.7079169346389593 -0.2611947063032437 0.6477380802155774  0.62027001 0.65688628 0.42867881  0.75508285 0.39112961 0.5261817600000001  0.83841747 0.46896529 0.27771845  0.6833907091486762 0.4080432798812885 0.5926255341490811  0.34706694 0.82521343 0.44560948  0.45817986 0.59716052 0.6583848  0.6109101354658881 0.7100212411917854 0.3331247050801047  0.57621109 -0.07108438 -0.81420386  0.27031744 -0.18058614 -0.9456834200000001  0.45016909 -0.40186495 -0.79740351  0.5556227636310459 4.856542228151753e-17 -0.8312939641713233  0.79665613 -0.10245212 -0.5956867300000001  0.6128750459897698 -0.3349366244891802 -0.7075103749614957  0.7269755 -0.68590748 -0.03220996  0.6947726829622008 -0.6874735559686311 0.1752578832152858  0.9103180825342592 -0.407876614509503 -0.02257198638934565  0.70462537 -0.5359323 0.46505862  -0.8959739799999999 -0.02502822 -0.44340074  -0.7775342564647209 0.2501762564511847 -0.5644239242853362  -0.71813208 0.01061942 -0.6958255800000001  -0.7322976 0.26231322 -0.62843603  -0.8072841370365582 -0.3202543922785323 -0.493510210404228  -0.3221398345171177 -0.2939226595472382 -0.8971514789160879  -0.16403137 -0.28720394 -0.9437201  -0.01499026930781414 -0.374812743629903 -0.9247464099775672  0.00049948 -0.99898493 -0.04504309  0.1343385468210788 -0.9644337491825122 -0.2141575383332755  0.23356465 -0.91487938 -0.32930726  -0.04233006172979434 -0.8517131664718688 -0.5140177671995694  0.7989946 0.42643178 -0.42398548  0.787018 0.18293804 -0.58918279  0.95000267 0.24275914 -0.19637455  0.6071337784302302 0.3378973793171098 -0.7103500784775993  0.9377066269512497 0.2953509389462012 -0.1629049719823518  0.77437425 0.61457777 -0.15046185  0.7737729370372342 0.4626365294295153 -0.4134881874749085  0.56061244 0.62922853 -0.53831679  0.5822083960527591 0.6871854790321221 -0.4159077297117835  -0.49492225 0.67110866 0.55196494  -0.5775916489005026 0.782549143646226 0.2086053314560924  -0.7269755 0.68590748 0.03220996  0.5186756300000001 0.25647014 -0.815597  0.8794862245404212 -0.004599549443613338 -0.4666549365809443  -0.8385101149897338 -0.5308615879272205 0.06678740472222519  -0.9058601838119071 -0.3059002372582487 0.2879540016532777  -0.4398890680716321 0.5979249632760774 0.6572729124071728  0.01815064 -0.14376774 -0.98944497  0.261268932925357 0.09273189635918111 -0.9584780589262915  -0.02458291 0.11101565 -0.99351466  -0.03542108876860528 -0.05580835348093655 -0.9949472434084734  -0.21815184 -0.96529853 0.14355603  -0.008280920000000001 -0.91833574 0.3957155  0.07475552890320419 -0.9766737186200212 0.1811723155055522  -0.7989946 -0.42643178 0.42398548  -0.76881015 -0.63443005 -0.08018267  0.41972056 0.13890146 0.89696217  0.267638840244698 0.3425236580713276 0.895461241914263  0.2303302671457235 -0.004582309206466663 0.97208000483392  0.29121652 0.5080446 0.81060714  -0.01815064 0.14376774 0.98944497  0.12325888 0.76308644 -0.63443404  -0.1711715 0.7508027 -0.63796228  -0.1543033499620919 0.6172133998483676 -0.7715167498104595  -0.004887020316841102 0.8288142457342541 -0.5582888358520095  0.33342126 0.59105629 -0.73449486  0.3253180162669096 0.7760557099135295 -0.5309489099536021  0.1519666595115714 0.6500353922359514 -0.7390806650985726  0.36573517 0.82799923 -0.42503539  0.008280920000000001 0.91833574 -0.3957155  -0.71787667 0.58964658 0.37009448  -0.82531255 0.53441709 -0.18236656  -0.7505549061632135 0.6533709491163311 -0.01004960813184246  0.25109273 0.18545359 -0.95003116  0.284361442897292 0.4104318893734465 -0.8587152069519437  0.37372714 -0.14994749 0.91533804  0.5695152526953376 0.08788645966264677 0.8109137422435466  0.58993262 0.29020479 0.75349891  0.15335634 -0.48859259 -0.85892904  0.29233774902937 -0.418988314800157 -0.8523340533788892  0.71813208 -0.01061942 0.6958255800000001  0.03397677499283128 -0.2606742540601514 0.9621390939314927  0.02458291 -0.11101565 0.99351466  0.96573383 -0.25948238 -0.00521876  0.93607759 -0.12621707 -0.32837197  1 -4.216046237875697e-16 9.303463361252135e-17  0.924629031230594 -0.2422122191605595 -0.2793458900254113  0.89079481 -0.39080378 -0.23185565  0.96443313 0.21101427 0.1591908  0.99998999 0.00399988 -0.00199994  0.8787689244963097 0.2967406796557684 0.3596510322295198  0.856806810194386 0.494613038925411 0.1043037601342205  0.76881015 0.63443005 0.08018267  0.59039032 0.77985275 -0.208012  0.4695626721704766 0.8781691480397077 -7.073713415654868e-17  0.7103845717093981 0.6790322178185297 -0.1501457109045728  0.5064300900000001 0.83423322 0.21813659  -0.6764290153252557 0.589050704950823 0.4258673993183723  -0.6461687496801416 0.3689762983420781 0.6610282204644429  -0.57621109 0.07108438 0.81420386  -0.70462537 0.5359323 -0.46505862  -0.45601672 0.6974324 -0.55284446  -0.6712768996457738 0.5845801301661222 -0.4389901592459081  -0.4794496143741062 0.4908681350887957 -0.7196857675395689  -0.8709996546488252 0.3830735428375558 -0.2860688752829558  -0.48816177 0.42692393 -0.7612056699999999  -0.12325888 -0.76308644 0.63443404  0.129179098604879 -0.8026316247791323 0.5739067471696695  0.27761558 -0.89411885 0.35139894  0.332919562075594 0.7036144808758378 0.619315354159494  -0.33342126 -0.59105629 0.73449486  -0.5552281759597784 -0.3401313022578859 0.749387593341347  -0.15181039 -0.42679733 0.89151424  0.57014918 -0.79521382 0.20631234  0.4623487389043482 -0.8813295849117795 0.01332146233356161  0.4994389232949822 -0.7584421628467486 0.4029356026226604  0.28169212 -0.95859379 0.04180405  -0.83841747 -0.46896529 -0.27771845  -0.75508285 -0.39112961 -0.5261817600000001  -0.8083029000873055 -0.5193129283629749 -0.2541681331538641  -0.2003225720421726 -0.7412609542464591 0.6332295784219224  -0.1736337303569123 -0.4822887990014896 0.8524966233828211  -0.5186756300000001 -0.25647014 0.815597  0.15181039 0.42679733 -0.89151424  0.00856556869040466 0.2854284242533505 -0.9552157474315078  -0.12497177 0.37524998 -0.91846037  0.5117026 -0.83323461 -0.20947689  0.7129143864661588 -0.6794379901965717 -0.1323705826639176  -0.23735723 0.5691511 -0.78722847  -0.3132649771635637 0.8424276875660131 -0.4268201674633497  -0.57014918 0.79521382 -0.20631234  -0.02494431 -0.6144594 -0.7885539499999999  0.1446538614651113 -0.6566300777444239 -0.7336936983516162  -0.45016909 0.40186495 0.79740351  -0.4007243685050151 0.2976082324613315 0.8593025124066886  -0.27761558 0.89411885 -0.35139894  -0.37372714 0.14994749 -0.91533804  -0.3049396087443919 0.2537526826570402 -0.9138305332805504  -0.3698512044455902 -0.01894707456842559 -0.926197386607636  -0.41972056 -0.13890146 -0.89696217  -0.6117500884082608 1.061218496139073e-16 -0.7852805664212925  0.44222176 0.89561254 -0.04814707  0.3239761402598558 0.9050143930193846 -0.2604984932852816  0.69784802 -0.36849079 -0.61418474  0.4918582970898161 -0.8195545066731174 -0.2785188728790035  0.23124145 -0.75768822 -0.61027521  0.318855346050911 -0.7862120955502916 -0.5210390125066708  0.3477644670682278 0.8850964945519285 0.2941635105197599  -0.4383337154423875 -0.0585871875984164 0.8917990589784845  -0.27031744 0.18058614 0.9456834200000001  -0.78607196845847 -0.2180579670332206 0.5686512015717786  0.71787667 -0.58964658 -0.37009448  0.49492225 -0.67110866 -0.55196494  -0.1258880207547849 0.01843031016651068 0.9900763292558197  0.7701912923029587 -0.4707885859335083 -0.4115735802995047  -0.25109273 -0.18545359 0.95003116  0.5473678853946775 -0.5960351483854898 -0.5715828176449211  </DataArray>
</Points>
<Cells>
<DataArray  type="UInt32"  Name="connectivity"  format="ascii">0 1 2  0 1 3  0 2 4  0 3 5  0 5 6  0 6 7  0 4 7  8 9 10  8 9 11  8 10 12  8 12 13  8 13 14  8 11 14  15 16 17  15 16 18  15 19 20  15 17 19  15 21 22  15 18 21  15 20 22  23 24 25  23 24 26  23 26 27  23 27 28  23 25 29  23 29 30  23 30 31  23 28 31  32 33 34  32 33 35  32 36 37  32 36 38  32 38 39  32 34 39  32 35 37  40 41 42  40 41 43  40 44 45  40 42 44  40 45 46  40 43 46  1 47 48  1 47 49  47 48 50  47 49 51  47 50 51  52 53 54  52 53 55  52 54 56  52 56 57  9 10 52  9 52 55  10 52 57  1 2 49  1 3 58  1 58 59  1 48 59  60 61 62  60 61 63  27 60 63  26 27 60  60 62 64  26 60 64  61 65 66  61 65 67  61 66 68  61 63 68  61 62 67  65 69 70  65 69 71  65 70 72  62 65 67  62 65 72  65 66 71  33 44 73  33 35 44  33 34 73  74 75 76  74 75 77  74 78 79  74 78 80  74 77 79  74 76 80  81 82 83  81 82 84  81 85 86  81 84 85  81 83 86  41 87 88  41 87 89  41 88 90  41 42 90  41 43 89  5 6 91  5 91 92  91 93 94  91 93 95  91 92 94  6 91 95  69 70 96  69 96 97  69 97 98  69 71 98  63 68 99  68 99 100  68 101 102  68 100 101  66 68 102  103 104 105  103 104 106  103 105 107  103 107 108  103 108 109  103 106 110  103 110 111  103 109 111  53 54 112  53 112 113  53 113 114  53 55 114  104 106 115  84 104 115  85 104 116  84 85 104  104 105 116  2 7 117  2 4 7  2 117 118  2 49 118  19 56 57  19 20 56  56 112 119  54 56 112  22 56 119  20 22 56  82 98 120  82 120 121  120 122 123  120 121 122  97 120 123  97 98 120  27 63 124  27 28 124  124 125 126  28 124 125  63 99 124  99 124 126  24 118 127  24 25 127  24 117 128  24 26 128  24 117 118  16 129 130  16 129 131  16 130 132  16 17 132  16 131 133  16 18 133  134 135 136  134 135 137  134 138 139  134 138 140  134 141 142  134 139 141  134 137 142  134 136 140  58 114 143  58 59 143  3 58 144  58 144 145  58 114 145  115 146 147  115 121 146  106 115 138  115 138 147  84 115 121  129 131 148  129 148 149  129 130 150  129 149 150  82 98 151  82 151 152  82 83 152  82 84 121  34 148 153  148 149 153  34 39 148  39 148 154  148 154 155  131 148 155  156 157 158  156 157 159  156 159 160  89 156 160  43 156 158  43 89 156  105 161 162  158 161 162  46 158 161  46 161 163  105 107 161  76 161 164  76 161 163  107 161 164  165 166 167  165 166 168  165 167 169  80 165 169  108 164 165  108 165 168  76 164 165  76 80 165  48 112 170  48 112 171  48 143 170  48 59 143  48 171 172  48 50 172  46 75 153  75 150 153  44 45 153  44 73 153  45 46 153  149 150 153  34 73 153  173 174 175  173 174 176  5 173 177  5 92 173  94 173 178  173 176 178  144 173 177  144 173 175  92 94 173  36 38 179  36 179 180  36 37 181  36 180 181  46 75 163  75 76 163  75 77 150  12 19 78  19 78 182  12 19 57  17 19 182  29 183 184  29 30 183  25 29 127  29 127 184  38 39 185  39 154 185  87 88 186  87 186 187  88 90 186  90 186 188  181 186 189  181 186 188  186 187 189  62 190 191  62 190 192  7 117 190  7 95 190  117 128 190  128 190 192  95 190 191  179 183 193  179 183 194  183 185 195  183 184 195  183 185 194  30 183 193  146 147 196  146 196 197  196 197 198  136 196 198  138 147 196  138 140 196  136 140 196  87 199 200  87 187 199  87 160 200  87 89 160  135 174 201  174 176 201  135 174 202  174 202 203  174 175 203  112 143 170  112 113 143  112 119 171  98 151 204  151 204 205  83 151 205  83 151 152  171 172 206  172 206 207  21 22 206  21 206 207  22 119 206  119 171 206  31 125 179  28 31 125  31 179 193  30 31 193  42 44 90  35 44 90  9 55 208  9 11 208  135 137 208  135 202 208  202 203 208  55 203 208  137 142 208  11 142 208  122 146 197  121 122 146  122 209 210  122 209 211  122 197 198  122 198 210  122 123 211  125 179 180  125 126 181  125 180 181  70 96 212  70 212 213  70 93 95  70 93 213  70 72 191  70 95 191  113 114 143  105 157 162  157 158 162  99 100 189  99 126 189  66 71 204  66 204 205  71 98 204  108 111 166  108 166 168  166 214 215  166 167 214  141 166 215  111 141 166  178 201 210  176 178 201  135 136 201  136 198 201  198 201 210  3 5 177  85 116 157  85 157 159  85 86 216  85 159 216  101 189 199  101 199 217  101 102 218  101 218 219  100 101 189  101 217 219  105 116 157  78 169 220  78 80 169  167 169 214  169 214 220  78 79 182  12 78 220  79 132 150  79 132 182  77 79 150  178 209 210  178 209 213  94 178 213  62 64 128  62 128 192  62 72 191  172 195 221  50 172 195  172 221 222  172 207 222  3 144 177  144 145 203  144 175 203  43 46 158  130 132 150  17 132 182  10 12 57  12 13 220  51 118 127  51 127 223  127 184 223  199 217 224  199 200 224  187 189 199  51 184 195  50 51 195  49 51 118  51 184 223  66 102 218  66 205 218  83 218 225  218 219 225  83 205 218  133 222 226  18 133 222  133 155 226  131 133 155  14 214 215  13 14 214  14 142 215  11 14 142  107 108 164  108 109 111  96 97 212  97 211 212  97 123 211  38 179 194  160 224 227  160 200 224  159 160 227  185 195 228  195 221 228  211 212 213  21 207 222  18 21 222  221 222 228  222 226 228  209 211 213  6 7 95  13 214 220  26 64 128  83 216 229  83 86 216  216 224 227  216 224 229  159 216 227  93 94 213  37 90 188  35 37 90  106 110 138  110 138 139  110 139 141  110 111 141  55 114 203  114 145 203  154 185 228  38 185 194  37 181 188  83 225 229  224 225 229  217 224 225  217 219 225  141 142 215  126 181 189  155 226 228  154 155 228  </DataArray>
<DataArray  type="UInt32"  Name="offsets"  format="ascii">3 6 9 12 15 18 21 24 27 30 33 36 39 42 45 48 51 54 57 60 63 66 69 72 75 78 81 84 87 90 93 96 99 102 105 108 111 114 117 120 123 126 129 132 135 138 141 144 147 150 153 156 159 162 165 168 171 174 177 180 183 186 189 192 195 198 201 204 207 210 213 216 219 222 225 228 231 234 237 240 243 246 249 252 255 258 261 264 267 270 273 276 279 282 285 288 291 294 297 300 303 306 309 312 315 318 321 324 327 330 333 336 339 342 345 348 351 354 357 360 363 366 369 372 375 378 381 384 387 390 393 396 399 402 405 408 411 414 417 420 423 426 429 432 435 438 441 444 447 450 453 456 459 462 465 468 471 474 477 480 483 486 489 492 495 498 501 504 507 510 513 516 519 522 525 528 531 534 537 540 543 546 549 552 555 558 561 564 567 570 573 576 579 582 585 588 591 594 597 600 603 606 609 612 615 618 621 624 627 630 633 636 639 642 645 648 651 654 657 660 663 666 669 672 675 678 681 684 687 690 693 696 699 702 705 708 711 714 717 720 723 726 729 732 735 738 741 744 747 750 753 756 759 762 765 768 771 774 777 780 783 786 789 792 795 798 801 804 807 810 813 816 819 822 825 828 831 834 837 840 843 846 849 852 855 858 861 864 867 870 873 876 879 882 885 888 891 894 897 900 903 906 909 912 915 918 921 924 927 930 933 936 939 942 945 948 951 954 957 960 963 966 969 972 975 978 981 984 987 990 993 996 999 1002 1005 1008 1011 1014 1017 1020 1023 1026 1029 1032 1035 1038 1041 1044 1047 1050 1053 1056 1059 1062 1065 1068 1071 1074 1077 1080 1083 1086 1089 1092 1095 1098 1101 1104 1107 1110 1113 1116 1119 1122 1125 1128 1131 1134 1137 1140 1143 1146 1149 1152 1155 1158 1161 1164 1167 1170 1173 1176 1179 1182 1185 1188 1191 1194 1197 1200 1203 1206 1209 1212 1215 1218 1221 1224 1227 1230 1233 1236 1239 1242 1245 1248 1251 1254 1257 1260 1263 1266 1269 1272 1275 1278 1281 1284 1287 1290 1293 1296 1299 1302 1305 1308 1311 1314 1317 1320 1323 1326 1329 1332 1335 1338 1341 1344 1347 1350 1353 1356 1359 1362 1365 1368 </DataArray>
<DataArray  type="UInt8"  Name="types"  format="ascii">5 5 5 5 5 5 5 5 5 5 5 5 5 5 5 5 5 5 5 5 5 5 5 5 5 5 5 5 5 5 5 5 5 5 5 5 5 5 5 5 5 5 5 5 5 5 5 5 5 5 5 5 5 5 5 5 5 5 5 5 5 5 5 5 5 5 5 5 5 5 5 5 5 5 5 5 5 5 5 5 5 5 5 5 5 5 5 5 5 5 5 5 5 5 5 5 5 5 5 5 5 5 5 5 5 5 5 5 5 5 5 5 5 5 5 5 5 5 5 5 5 5 5 5 5 5 5 5 5 5 5 5 5 5 5 5 5 5 5 5 5 5 5 5 5 5 5 5 5 5 5 5 5 5 5 5 5 5 5 5 5 5 5 5 5 5 5 5 5 5 5 5 5 5 5 5 5 5 5 5 5 5 5 5 5 5 5 5 5 5 5 5 5 5 5 5 5 5 5 5 5 5 5 5 5 5 5 5 5 5 5 5 5 5 5 5 5 5 5 5 5 5 5 5 5 5 5 5 5 5 5 5 5 5 5 5 5 5 5 5 5 5 5 5 5 5 5 5 5 5 5 5 5 5 5 5 5 5 5 5 5 5 5 5 5 5 5 5 5 5 5 5 5 5 5 5 5 5 5 5 5 5 5 5 5 5 5 5 5 5 5 5 5 5 5 5 5 5 5 5 5 5 5 5 5 5 5 5 5 5 5 5 5 5 5 5 5 5 5 5 5 5 5 5 5 5 5 5 5 5 5 5 5 5 5 5 5 5 5 5 5 5 5 5 5 5 5 5 5 5 5 5 5 5 5 5 5 5 5 5 5 5 5 5 5 5 5 5 5 5 5 5 5 5 5 5 5 5 5 5 5 5 5 5 5 5 5 5 5 5 5 5 5 5 5 5 5 5 5 5 5 5 5 5 5 5 5 5 5 5 5 5 5 5 5 5 5 5 5 5 5 5 5 5 5 5 5 5 5 5 5 5 5 5 5 5 5 5 5 5 5 5 5 5 5 5 5 5 5 5 5 5 5 5 5 5 </DataArray>
</Cells>
<PointData  Scalars="f_29"> 
<DataArray  type="Float64"  Name="f_29"  format="ascii">8.9020222700444691e+01  8.2993399796195774e+01  8.6950864023041945e+01  9.0000000000000000e+01  8.9769026826402722e+01  8.7157563239557149e+01  8.9250944605090652e+01  9.2149713254004013e+01  8.3818418492331006e+01  8.3404505027953093e+01  8.2810653661300449e+01  8.7447937110184824e+01  8.1422776290296838e+01  8.4486383099711105e+01  8.6290276365210119e+01  6.7158305155156029e+01  7.0932859907279166e+01  7.0788973840419615e+01  6.2115130980920327e+01  7.6228355423057138e+01  7.4057216387126559e+01  5.1000000000000007e+01  6.2700964286129896e+01  8.7474939544808990e+01  8.9524464907305969e+01  8.5296533849834574e+01  8.9227108270525164e+01  8.7309082173754703e+01  8.6831349145475968e+01  8.2340818933067453e+01  8.3064274916759317e+01  8.5276121353280800e+01  8.2617706644222466e+01  8.2838095776035971e+01  8.1433524558558346e+01  8.3633168257613306e+01  8.4743163513236340e+01  8.4223639831903824e+01  8.2092892791968310e+01  8.1463797128499976e+01  8.7723081161788841e+01  8.4709067567844855e+01  8.5416811568825295e+01  9.0000000000000000e+01  8.4666765113780542e+01  8.7774303539730198e+01  8.8261370157682123e+01  7.7058591954768872e+01  7.4855843339937692e+01  8.2278656225457468e+01  7.3893070993854280e+01  7.8676004684356684e+01  7.8671921087856887e+01  8.0148462728486194e+01  7.5605112159136169e+01  8.2585802545111164e+01  7.1643238828984295e+01  7.9840101537973894e+01  8.3440557930534297e+01  8.2520860368466970e+01  8.8067552208805921e+01  8.3526326799841385e+01  9.0825311375370163e+01  8.5172667655417229e+01  9.0434541360036789e+01  8.2857020989205211e+01  7.7377630065556943e+01  8.4534582259801056e+01  8.2179257968046471e+01  7.6877553838563998e+01  8.4212176131190262e+01  7.3373787847270890e+01  8.5416761528029184e+01  8.4424321445756803e+01  8.6538676642804191e+01  8.7228433381762073e+01  9.5430921001418767e+01  8.5195981233144522e+01  8.1595216407534849e+01  8.0295378942799985e+01  8.7652996720822443e+01  7.1078781280550643e+01  6.5492543680502791e+01  6.6941877773123053e+01  7.0722928240835969e+01  7.7377639815192921e+01  7.1884489695237349e+01  8.2265006758022082e+01  8.3740531005261360e+01  8.4406763789063561e+01  8.4754193099197252e+01  8.8701557221487292e+01  8.5850669244023535e+01  8.5376748302588396e+01  8.5208747097387970e+01  9.1620011193872216e+01  7.7428741757304834e+01  7.3330262505332826e+01  6.6178859293130046e+01  8.4147830335628512e+01  8.1293540906459896e+01  7.9042625791298391e+01  7.7657076566817466e+01  8.4537536694005354e+01  7.9365150319736912e+01  8.8478370595974638e+01  7.6456491803788737e+01  8.9843332104078556e+01  9.1315348999562090e+01  8.4825185200691934e+01  8.2670288728799150e+01  8.4966722703395106e+01  7.4190887927612224e+01  8.0291104375943860e+01  8.2717169091999622e+01  7.1938933726779425e+01  8.0846507069705595e+01  9.1448603352009528e+01  8.5622963047019880e+01  7.1111651880238171e+01  7.2200438482533897e+01  6.0785633743931299e+01  8.3000000000000000e+01  7.6601706874004179e+01  8.6553975005449928e+01  9.2000000000000000e+01  8.6647433884806148e+01  8.3505267175105786e+01  9.5941984548090758e+01  7.8127433391771646e+01  7.3768650026034550e+01  7.5997093059551673e+01  7.4772256853969111e+01  6.7810722965922110e+01  8.3746279674122306e+01  8.4400545673439325e+01  8.2064058612958917e+01  8.6735715392157687e+01  7.8513357391977792e+01  8.3898853099024606e+01  8.0450358375358377e+01  8.5303094657605570e+01  9.2000000000000000e+01  7.8985490337731520e+01  8.5404291162098232e+01  8.3310883853987690e+01  5.4000000000000007e+01  7.1940938329355433e+01  7.9842633236353123e+01  8.1210739710839505e+01  8.1739362074501386e+01  5.1000000000000000e+01  5.9327434787502931e+01  8.3937672257780989e+01  8.3000000000000000e+01  7.5097413211074951e+01  8.6163007637954124e+01  8.2502863811232629e+01  8.8471795676875232e+01  8.2387061262639051e+01  8.1951858214367206e+01  9.1849083985049589e+01  8.8477592512357162e+01  9.0831633348237361e+01  1.0600000000000000e+02  9.5525604576057376e+01  8.7741679501930662e+01  8.6947875863618052e+01  9.0419481974107200e+01  8.6503827331233097e+01  7.7748062574800855e+01  7.3305723734659125e+01  6.9910788828140497e+01  8.5033446120419228e+01  8.4430678883565264e+01  8.4885400713279424e+01  8.3439747384865370e+01  8.6683592992800740e+01  8.3266466903926855e+01  8.3801176568600084e+01  8.5759237087508879e+01  8.5794807638727491e+01  7.8686753592118691e+01  7.9079381277043964e+01  7.4498956246479764e+01  7.4051861667527874e+01  8.3702812977679685e+01  8.2570856221769120e+01  8.4404923331184307e+01  8.3619405782870558e+01  1.0265240885100089e+02  9.0923611535222491e+01  1.0600000000000000e+02  8.3037457068440432e+01  7.5792597334290093e+01  7.0947858767452260e+01  7.4280894266316139e+01  7.6496589641432664e+01  7.9104736470341010e+01  8.0020704525774903e+01  8.1257761093819440e+01  8.2136316358911770e+01  8.5345306096300916e+01  8.3974537528461227e+01  6.8473187655017583e+01  6.6123405419090872e+01  6.7351630693533338e+01  6.6087083963678026e+01  8.5949288266719449e+01  8.1392858812741920e+01  8.1220117649072094e+01  8.0406458911051715e+01  8.0352518871761447e+01  8.3755456631944341e+01  8.6828920137108383e+01  8.6518283654250055e+01  7.4837496800460599e+01  7.9094951228668137e+01  7.1866696039545204e+01  7.4467065229408234e+01  8.3602357296382522e+01  6.5416276126246956e+01  6.5648575478106608e+01  7.9285594709063616e+01  7.8480811179631317e+01  7.4432011298038375e+01  6.5838727466618920e+01  7.8400872055811561e+01  5.4000000000000000e+01  7.4101934613840314e+01  </DataArray> 
</PointData> 
</Piece>
</UnstructuredGrid>
</VTKFile>