<?xml version="1.0"?>
<VTKFile type="UnstructuredGrid"  version="0.1"  >
<UnstructuredGrid>
<Piece  NumberOfPoints="414" NumberOfCells="824">
<Points>
<DataArray  type="Float64"  NumberOfComponents="3"  format="ascii">0.22293058 0.49968055 0.83703119  0.02494431 0.6144594 0.7885539499999999  0.05977917331816646 0.4172903719601645 0.9031313316184106  0.28590546066337 0.5792448405042454 0.752726221649995  0.16403137 0.28720394 0.9437201  0.2473501047674772 0.3550844852371925 0.89564065711311  0.29121652 0.5080446 0.81060714  -0.17871778 0.49333411 0.85128242  -0.45016909 0.40186495 0.79740351  -0.3798531009817634 0.4610516212022214 0.7939968301682743  -0.2225766727758132 0.3459409648169252 0.9049999513610065  -0.15335634 0.48859259 0.85892904  -0.06243159759888766 0.5520084987017815 0.8255163158586587  -0.1450179757558109 0.7124316278469871 0.6778320142678576  -0.3674534550132951 0.6437862507250121 0.6645273938127061  -0.37542525 0.14225766 0.91587037  -0.57621109 0.07108438 0.81420386  -0.4726282877203369 0.2612567150540387 0.8362199423234062  -0.3623523668076333 -0.00872620159349213 0.9292929967973573  -0.27031744 0.18058614 0.9456834200000001  0.41157657 0.72193778 0.556247  0.62027001 0.65688628 0.42867881  0.45817986 0.59716052 0.6583848  0.4412715419557489 0.7703197562572959 0.4408669037619209  0.34706694 0.82521343 0.44560948  0.2173347235416823 0.7566701388937702 0.6064838784603671  0.19853516 0.9361674800000001 0.29012811  0.5064300900000001 0.83423322 0.21813659  0.2360552517289375 0.9558664091838647 0.1556245671197375  0.2116759270569187 0.8838319809537242 0.4030966876496388  0.11785752 0.95041883 0.28777412  0.84751403 0.52907634 0.04240569  0.76881015 0.63443005 0.08018267  0.781577193062667 0.6162659353747613 2.108763093563309e-05  0.8410968205102922 0.4956588527658726 0.1849043484025546  0.77437425 0.61457777 -0.15046185  0.8990895166464498 0.4260150636967884 -0.04758074187371523  0.9458208355103686 0.2916317452617456 0.1277581404258807  0.73912424 0.51868695 0.42972025  0.6667736167756209 0.4685807544352511 0.5673851468384389  0.7349002449720148 0.5512679611568407 0.3723645918857617  0.75508285 0.39112961 0.5261817600000001  0.7996254224155166 0.3402163738685886 0.49038981327561  0.83841747 0.46896529 0.27771845  0.8369149829355758 0.4151505216260506 0.338476185221686  0.43850514 0.15385152 0.88546205  0.41972056 0.13890146 0.89696217  0.461550330042769 -0.04190214117787654 0.8801586944848963  0.58993262 0.29020479 0.75349891  0.6084998067936376 0.1850576416845174 0.7670006110123309  0.458493387567786 0.1922840834534747 0.8628769651230423  0.6509161074884993 0.01262077726492806 0.7524126786136737  0.75664991 0.17243032 0.63067305  0.71813208 -0.01061942 0.6958255800000001  0.8392848831141476 0.02513344126819355 0.538243579686812  0.7251206566311876 0.2302636015852684 0.640105295418004  0.8959739799999999 0.02502822 0.44340074  0.6289694300000001 0.74815804 -0.21132247  0.59039032 0.77985275 -0.208012  0.6219787287566473 0.7743340032720702 -0.04256166290081188  0.6233696101513673 0.7062107858700042 -0.3181852670942434  0.30347744 0.94898587 -0.0855993  0.21815184 0.96529853 -0.14355603  0.3469903103403891 0.9199603576461657 -0.1534473985316256  0.2131378738504563 0.9733603222337651 -0.03475180560381935  0.44222176 0.89561254 -0.04814707  0.3710169123694158 0.9258673693588058 0.01782199640384011  0.28489485 0.54959691 -0.78535217  0.15181039 0.42679733 -0.89151424  0.3244428422615251 0.4866642633922876 -0.8111071056538127  0.1298169918866863 0.5906804801619694 -0.7917833457117868  0.33342126 0.59105629 -0.73449486  0.62077832 0.54730117 -0.56133366  0.7989946 0.42643178 -0.42398548  0.7486903592331247 0.4449189367118199 -0.4748871946518134  0.56061244 0.62922853 -0.53831679  0.4602144512519494 0.3642069854052645 -0.8034618004951548  0.6108927405931197 0.3506128307084609 -0.700508327945139  0.97062433 0.19699152 -0.13814011  0.99998999 0.00399988 -0.00199994  0.9836015276624746 -0.00145024678153282 -0.167194316196813  0.9751912433377472 0.1895868421778895 -0.07151712894065737  0.95000267 0.24275914 -0.19637455  0.9249105750983566 0.03858179839109607 -0.3688693861687249  0.83273727 0.20222756 -0.5154147100000001  0.7661718892301086 0.2486586223206192 -0.5796270464868805  0.869989880921597 0.1897391988911965 -0.4466924717319445  0.787018 0.18293804 -0.58918279  0.8255848625560478 0.04755878960675904 -0.5549685576959045  -0.03439669 0.75075191 -0.65968806  0.12325888 0.76308644 -0.63443404  0.03363162970248974 0.7421591915039156 -0.6618811563723401  0.1381741379001138 0.8757981512525012 -0.4580338251308123  -0.1711715 0.7508027 -0.63796228  -0.1099238790779294 0.7714594624189656 -0.6205407281570555  -0.06974967270042241 0.5994856541714976 -0.7911379150046343  0.008280920000000001 0.91833574 -0.3957155  -0.1024782003381974 0.8569365973318896 -0.4947872301655248  -0.02572841 0.94997877 -0.31125325  -0.27761558 0.89411885 -0.35139894  -0.2401491470718276 0.9200230266785537 -0.2966943577929775  -2.220446049250313e-16 0.9673025247950178 -0.2509659636086062  -0.1387492048956964 0.9829632955273535 -0.1043803921070539  -0.68088585 0.5256443 -0.50999278  -0.70462537 0.5359323 -0.46505862  -0.5841694857584351 0.6768796746834864 -0.4319094904845215  -0.7076358088671848 0.4474524522816465 -0.533681833622239  -0.45601672 0.6974324 -0.55284446  -0.5920770840649079 0.5660525682898208 -0.55685619907036  -0.48816177 0.42692393 -0.7612056699999999  -0.549267650377578 0.3842049920618453 -0.7300016615572662  -0.7322976 0.26231322 -0.62843603  -0.36761704 0.53581387 -0.76010603  -0.451428826611794 0.6120235091702592 -0.6347124632947223  -0.2165031763643561 0.6841648301145091 -0.6853189771507158  -0.23735723 0.5691511 -0.78722847  -0.3244428422615251 0.4866642633922876 -0.8111071056538127  -0.15568012 -0.20317107 0.96668768  -0.15181039 -0.42679733 0.89151424  -0.25109273 -0.18545359 0.95003116  0.01268533271190453 -0.3431036094604989 0.9355568596570019  -0.1387318516702492 0.05581067158541151 0.9856798012994563  -0.1138689017273057 -0.1820488340678513 0.9732177066722706  -0.24489762 0.19681381 -0.9493627  -0.02458291 0.11101565 -0.99351466  -0.12497177 0.37524998 -0.91846037  -0.0556470992400202 -0.04980841234576289 -0.9941593303856844  -0.37372714 0.14994749 -0.91533804  -0.3888222635289634 0.04662255179265928 -0.9162397367174885  -0.4078164763146493 0.2842423657497504 -0.8599738088148896  -0.2721655269759088 -0.1360827634879544 -0.9525793444156804  -0.66621846 0.7286719699999999 -0.15871401  -0.82531255 0.53441709 -0.18236656  -0.7270470826901101 0.6056231900150673 -0.2994353206918011  -0.7849625053683681 0.6050719507501952 -0.09626872659046082  -0.57014918 0.79521382 -0.20631234  -0.5204423645242667 0.8486888514086427 -0.03420400746757828  -0.7269755 0.68590748 0.03220996  -0.33905616 0.93877596 -0.06115915  -0.4617305658760427 0.8333701557782478 -0.2889052542800998  -0.28169212 0.95859379 -0.04180405  -0.3124317788056994 0.9350863943326166 0.1451544821383324  -0.19951271 0.93264794 0.30060336  -0.23356465 0.91487938 0.32930726  0.01722996062335802 0.9283647601039756 0.3637014329778697  -0.1143783259391903 0.9666207638444222 0.213501148498575  -0.38958105 0.7164155800000001 0.57877034  -0.23124145 0.75768822 0.61027521  -0.2640070646838143 0.8232279174674882 0.4919230069587825  -0.49492225 0.67110866 0.55196494  -0.4394180800223182 0.8440066742890506 0.28822725157934  -0.70739847 0.15345097 0.68995672  -0.79665613 0.10245212 0.5956867300000001  -0.6291224655740004 0.02192756811702108 0.7697191690702455  -0.7927608602810992 0.170493660832008 0.5773483883342885  -0.6935225029437253 0.2752052646588652 0.6577972586016798  -0.71661639 0.50075305 0.48549715  -0.69784802 0.36849079 0.61418474  -0.7784084647308714 0.3271373462903553 0.5269345329142884  -0.5699698536589602 0.4947185192984745 0.6450225438786598  -0.5579882337177338 0.675475197272763 0.4695290009909066  -0.71787667 0.58964658 0.37009448  -0.8602791582170859 0.4120217551155105 0.2766277371796078  -0.85508788 0.50734621 0.106886  -0.89079481 0.39080378 0.23185565  -0.96573383 0.25948238 0.00521876  -0.7152416852792269 0.6260089056083178 0.2881050552004344  -0.9515523923715894 0.2864664553983931 -0.06804316818679515  -0.87868327 0.18046372 -0.44198251  -0.8959739799999999 -0.02502822 -0.44340074  -0.8031907427295365 0.113874829810081 -0.5761913009629266  -0.9525793444156804 0.1360827634879545 -0.2721655269759087  -0.89393294 0.2815997 -0.34869114  -0.850800175290679 0.2911755963559479 -0.423009818657694  -0.98415816 0.1684573 -0.05526903  -0.99998999 -0.00399988 0.00199994  -0.9590757131322689 0.2039341478124471 0.1715691533453349  -0.990638906753776 0.08309033017631115 -0.07547268676668942  -0.93607759 0.12621707 0.32837197  -0.9443064331490192 -0.06780945441591525 0.3080144062643145  -0.96443313 -0.21101427 -0.1591908  -0.9715099998129729 -0.08487095731718361 -0.2018892139518315  -0.9928963960003571 -0.09556632237827212 0.029510673360134  -0.00049948 0.99898493 0.04504309  0.03202828507845873 0.998044243251947 0.00328364694689799  0.05735968039227923 0.6853900059357485 0.719350525495672  -0.59039032 -0.77985275 0.208012  -0.44222176 -0.89561254 0.04814707  -0.5396300310351192 -0.8337436932318452 0.06028542363916026  -0.4405427271817478 -0.8672789463995443 0.2084641768036908  -0.36573517 -0.82799923 0.42503539  -0.6054369958711427 -0.7351741775380879 0.2778084455383456  -0.6289694300000001 -0.74815804 0.21132247  0.23735723 -0.5691511 0.78722847  0.1711715 -0.7508027 0.63796228  0.3196401770856123 -0.7247123424438228 0.5990923247741073  0.1819836867814346 -0.6492907646316183 0.7308743251096798  0.12497177 -0.37524998 0.91846037  0.2138726263762937 -0.3780236829058775 0.8946030360535046  0.1676505357096937 -0.5203779634127175 0.8297707370679338  0.36761704 -0.53581387 0.76010603  0.01326632373376621 -0.5715443128759298 0.817443141554363  0.89393294 -0.2815997 0.34869114  0.87868327 -0.18046372 0.44198251  0.8217327104862554 -0.2467200983957554 0.5012189337528983  0.
[...]
<PointData  Scalars="f_18601"> 
<DataArray  type="Float64"  Name="f_18601"  format="ascii">0.0000000000000000e+00  0.0000000000000000e+00  0.0000000000000000e+00  0.0000000000000000e+00  3.2556733301035951e-02  0.0000000000000000e+00  3.3896916390493737e-01  0.0000000000000000e+00  -7.6727945383014223e-02  0.0000000000000000e+00  0.0000000000000000e+00  4.8985410910757415e-01  0.0000000000000000e+00  0.0000000000000000e+00  0.0000000000000000e+00  0.0000000000000000e+00  4.2604066472538196e-03  0.0000000000000000e+00  0.0000000000000000e+00  -3.4161363147993284e-02  0.0000000000000000e+00  -9.6432074843686016e-03  -1.7741879854751477e-02  0.0000000000000000e+00  -3.9880928493877914e-02  0.0000000000000000e+00  0.0000000000000000e+00  -8.2931901059769884e-05  0.0000000000000000e+00  0.0000000000000000e+00  -3.8114350623287260e-02  0.0000000000000000e+00  8.7761274777252288e-04  0.0000000000000000e+00  0.0000000000000000e+00  -1.4452715929841507e-04  0.0000000000000000e+00  0.0000000000000000e+00  0.0000000000000000e+00  0.0000000000000000e+00  0.0000000000000000e+00  -5.1845498722597437e-04  0.0000000000000000e+00  -9.5935408308088290e-05  0.0000000000000000e+00  0.0000000000000000e+00  -1.9163562870452670e-02  0.0000000000000000e+00  -4.4305933902915581e-02  0.0000000000000000e+00  0.0000000000000000e+00  0.0000000000000000e+00  0.0000000000000000e+00  3.7823994497869534e-03  0.0000000000000000e+00  0.0000000000000000e+00  1.3766730488362741e-03  0.0000000000000000e+00  3.5634119183924556e-06  0.0000000000000000e+00  0.0000000000000000e+00  0.0000000000000000e+00  2.1924521062366683e-04  0.0000000000000000e+00  0.0000000000000000e+00  3.0313917726977109e-04  0.0000000000000000e+00  0.0000000000000000e+00  -6.4945811360952622e-05  0.0000000000000000e+00  0.0000000000000000e+00  -3.6710226219895910e-05  0.0000000000000000e+00  5.9616392777044633e-05  0.0000000000000000e+00  2.1977366610478472e-05  0.0000000000000000e+00  0.0000000000000000e+00  0.0000000000000000e+00  -1.3703121889807469e-05  0.0000000000000000e+00  0.0000000000000000e+00  -6.7092492706921321e-06  0.0000000000000000e+00  0.0000000000000000e+00  0.0000000000000000e+00  0.0000000000000000e+00  -3.3418774303294789e-04  0.0000000000000000e+00  0.0000000000000000e+00  2.9274730424326923e-05  0.0000000000000000e+00  0.0000000000000000e+00  1.6849508832195001e-05  0.0000000000000000e+00  0.0000000000000000e+00  2.0938517753712437e-05  0.0000000000000000e+00  0.0000000000000000e+00  9.1279653234723059e-05  0.0000000000000000e+00  0.0000000000000000e+00  0.0000000000000000e+00  0.0000000000000000e+00  -3.9266459494067151e-05  0.0000000000000000e+00  0.0000000000000000e+00  -1.1953516887472654e-04  0.0000000000000000e+00  4.1249458919305308e-04  0.0000000000000000e+00  -2.4219922046946361e-04  0.0000000000000000e+00  0.0000000000000000e+00  0.0000000000000000e+00  -6.0071246705492110e-05  0.0000000000000000e+00  0.0000000000000000e+00  -6.4945811360952622e-05  2.0960880846660921e-03  0.0000000000000000e+00  0.0000000000000000e+00  0.0000000000000000e+00  0.0000000000000000e+00  3.8014009074669456e-04  -5.3800881098588704e-04  0.0000000000000000e+00  -1.2966521741730038e-03  0.0000000000000000e+00  0.0000000000000000e+00  0.0000000000000000e+00  0.0000000000000000e+00  -1.2673232961811463e-04  0.0000000000000000e+00  0.0000000000000000e+00  6.2269202035922005e-04  0.0000000000000000e+00  -6.2140419858292093e-04  0.0000000000000000e+00  0.0000000000000000e+00  2.8752688150312376e-03  0.0000000000000000e+00  0.0000000000000000e+00  -5.3680570309966834e-02  0.0000000000000000e+00  0.0000000000000000e+00  0.0000000000000000e+00  2.4255245897026478e-01  0.0000000000000000e+00  -7.7880228696006165e-02  0.0000000000000000e+00  0.0000000000000000e+00  6.8516659668099646e-04  0.0000000000000000e+00  0.0000000000000000e+00  0.0000000000000000e+00  0.0000000000000000e+00  6.7145633830635442e-03  0.0000000000000000e+00  0.0000000000000000e+00  0.0000000000000000e+00  9.7949261407774147e-03  0.0000000000000000e+00  0.0000000000000000e+00  3.5554091162037167e-05  -1.9642559494971367e-04  0.0000000000000000e+00  0.0000000000000000e+00  0.0000000000000000e+00  1.3766730488362741e-03  0.0000000000000000e+00  0.0000000000000000e+00  -1.1318300876604726e-04  0.0000000000000000e+00  0.0000000000000000e+00  -1.3703121889807469e-05  0.0000000000000000e+00  0.0000000000000000e+00  -1.2565348658034441e-04  0.0000000000000000e+00  -1.6034755028245599e-05  0.0000000000000000e+00  0.0000000000000000e+00  2.9428277762721441e-03  0.0000000000000000e+00  0.0000000000000000e+00  3.5634119183924556e-06  3.0313917726977109e-04  0.0000000000000000e+00  0.0000000000000000e+00  -7.7479719818316411e-05  0.0000000000000000e+00  0.0000000000000000e+00  -6.0071246705492110e-05  1.6849508832195001e-05  0.0000000000000000e+00  0.0000000000000000e+00  -5.3800881098588704e-04  0.0000000000000000e+00  0.0000000000000000e+00  0.0000000000000000e+00  0.0000000000000000e+00  -1.1318300876604726e-04  0.0000000000000000e+00  0.0000000000000000e+00  0.0000000000000000e+00  0.0000000000000000e+00  0.0000000000000000e+00  0.0000000000000000e+00  0.0000000000000000e+00  0.0000000000000000e+00  0.0000000000000000e+00  0.0000000000000000e+00  0.0000000000000000e+00  -8.2931901059769884e-05  -3.9880928493877914e-02  0.0000000000000000e+00  0.0000000000000000e+00  0.0000000000000000e+00  0.0000000000000000e+00  0.0000000000000000e+00  0.0000000000000000e+00  0.0000000000000000e+00  0.0000000000000000e+00  2.9937062102369733e-01  0.0000000000000000e+00  -1.7741879854751477e-02  3.3896916390493737e-01  0.0000000000000000e+00  0.0000000000000000e+00  -4.4305933902915581e-02  0.0000000000000000e+00  4.1249458919305308e-04  -2.4219922046946361e-04  0.0000000000000000e+00  0.0000000000000000e+00  0.0000000000000000e+00  0.0000000000000000e+00  0.0000000000000000e+00  4.2604066472538196e-03  0.0000000000000000e+00  0.0000000000000000e+00  0.0000000000000000e+00  0.0000000000000000e+00  0.0000000000000000e+00  -1.2673232961811463e-04  -6.2140419858292093e-04  0.0000000000000000e+00  0.0000000000000000e+00  0.0000000000000000e+00  0.0000000000000000e+00  3.7823994497869534e-03  0.0000000000000000e+00  0.0000000000000000e+00  0.0000000000000000e+00  0.0000000000000000e+00  -3.8114350623287260e-02  0.0000000000000000e+00  2.9428277762721441e-03  0.0000000000000000e+00  0.0000000000000000e+00  0.0000000000000000e+00  -6.2756306044203869e-03  0.0000000000000000e+00  -6.8395446276240128e-04  -6.7092492706921321e-06  0.0000000000000000e+00  0.0000000000000000e+00  0.0000000000000000e+00  0.0000000000000000e+00  0.0000000000000000e+00  -1.7795476143025121e-02  0.0000000000000000e+00  3.2556733301035951e-02  0.0000000000000000e+00  0.0000000000000000e+00  2.1924521062366683e-04  0.0000000000000000e+00  0.0000000000000000e+00  0.0000000000000000e+00  0.0000000000000000e+00  0.0000000000000000e+00  -1.4452715929841507e-04  0.0000000000000000e+00  8.7761274777252288e-04  0.0000000000000000e+00  0.0000000000000000e+00  0.0000000000000000e+00  0.0000000000000000e+00  -7.7479719818316411e-05  0.0000000000000000e+00  2.0960880846660921e-03  0.0000000000000000e+00  0.0000000000000000e+00  0.0000000000000000e+00  -1.2966521741730038e-03  0.0000000000000000e+00  -3.4161363147993284e-02  0.0000000000000000e+00  -7.6727945383014223e-02  0.0000000000000000e+00  0.0000000000000000e+00  -1.9642559494971367e-04  0.0000000000000000e+00  3.5554091162037167e-05  0.0000000000000000e+00  0.0000000000000000e+00  -1.6034755028245599e-05  0.0000000000000000e+00  0.0000000000000000e+00  0.0000000000000000e+00  0.0000000000000000e+00  0.0000000000000000e+00  0.0000000000000000e+00  0.0000000000000000e+00  2.9937062102369733e-01  2.1977366610478472e-05  -3.6710226219895910e-05  0.0000000000000000e+00  0.0000000000000000e+00  0.0000000000000000e+00  0.0000000000000000e+00  0.0000000000000000e+00  3.8014009074669456e-04  6.2269202035922005e-04  0.0000000000000000e+00  0.0000000000000000e+00  9.1279653234723059e-05  0.0000000000000000e+00  -9.5935408308088290e-05  0.0000000000000000e+00  0.0000000000000000e+00  0.0000000000000000e+00  0.0000000000000000e+00  0.0000000000000000e+00  -6.8395446276240128e-04  0.0000000000000000e+00  2.9274730424326923e-05  0.0000000000000000e+00  0.0000000000000000e+00  0.0000000000000000e+00  0.0000000000000000e+00  0.0000000000000000e+00  0.0000000000000000e+00  4.8985410910757415e-01  0.0000000000000000e+00  0.0000000000000000e+00  0.0000000000000000e+00  0.0000000000000000e+00  2.0938517753712437e-05  0.0000000000000000e+00  0.0000000000000000e+00  0.0000000000000000e+00  0.0000000000000000e+00  -5.1845498722597437e-04  0.0000000000000000e+00  0.0000000000000000e+00  -9.6432074843686016e-03  -1.9163562870452670e-02  0.0000000000000000e+00  0.0000000000000000e+00  0.0000000000000000e+00  0.0000000000000000e+00  0.0000000000000000e+00  0.0000000000000000e+00  5.9616392777044633e-05  -3.3418774303294789e-04  0.0000000000000000e+00  0.0000000000000000e+00  0.0000000000000000e+00  0.0000000000000000e+00  -3.9266459494067151e-05  -1.1953516887472654e-04  0.0000000000000000e+00  2.8752688150312376e-03  0.0000000000000000e+00  0.0000000000000000e+00  -5.3680570309966834e-02  0.0000000000000000e+00  0.0000000000000000e+00  0.0000000000000000e+00  2.4255245897026478e-01  0.0000000000000000e+00  -7.7880228696006165e-02  0.0000000000000000e+00  6.8516659668099646e-04  6.7145633830635442e-03  0.0000000000000000e+00  0.0000000000000000e+00  0.0000000000000000e+00  9.7949261407774147e-03  0.0000000000000000e+00  0.0000000000000000e+00  0.0000000000000000e+00  0.0000000000000000e+00  0.0000000000000000e+00  -6.2756306044203869e-03  -1.2565348658034441e-04  0.0000000000000000e+00  0.0000000000000000e+00  0.0000000000000000e+00  0.0000000000000000e+00  0.0000000000000000e+00  0.0000000000000000e+00  -1.7795476143025121e-02  0.0000000000000000e+00  0.0000000000000000e+00  0.0000000000000000e+00  0.0000000000000000e+00  0.0000000000000000e+00  0.0000000000000000e+00  0.0000000000000000e+00  0.0000000000000000e+00  0.0000000000000000e+00  </DataArray> 
</PointData> 
</Piece>
</UnstructuredGrid>
</VTKFile>