<?xml version="1.0"?>
<VTKFile type="UnstructuredGrid"  version="0.1"  >
<UnstructuredGrid>
<Piece  NumberOfPoints="4118" NumberOfCells="8232">
<Points>
<DataArray  type="Float64"  NumberOfComponents="3"  format="ascii">-0.928141195473704 -0.1592839788339812 0.3223312345738718  -0.9082122169306903 -0.1944683755547507 0.3538364065477133  -0.9103815925789276 -0.1478880671414555 0.3751260870735659  -0.9255187187924308 -0.2111414798755278 0.2991690034522669  -0.9333238123149247 -0.103198461266811 0.330085069150917  -0.9457313436386603 -0.1286011953031359 0.2916338130703784  -0.9505606310876127 -0.1595830585849696 0.2568490414748916  -0.0270504318927077 -0.4997148290623482 0.8603182356343098  0.01865202285379305 -0.4897310474724389 0.866197586455711  -0.04837662659983173 -0.4579618061876689 0.8817393711571285  0.003052497294465276 -0.5321684204715512 0.8440844717525531  -0.1029078015865237 -0.5016900848682663 0.8524501204105683  -0.03947767623129071 -0.5387862556012873 0.837038539392015  0.02451485021605786 -0.4406426722432093 0.8924597694939165  0.0994660633610213 -0.5061918302978874 0.8500167343373556  0.08035986482741808 -0.4417369039376204 0.8887341037395118  0.04521148593686018 -0.5214902452214037 0.8473788328047327  -0.8517042690095149 -0.5155403497562814 -0.02778684732877112  -0.8521784930266547 -0.5148441050127168 0.02605656388338133  -0.8780286963408255 -0.4689359419718988 0.008555216629073189  -0.8134008175983365 -0.5774456643978851 4.400927598285963e-05  -0.8748637384886064 -0.4708137617668487 -0.04683924550834236  -0.8550723509168547 -0.5026404108736523 -0.07848262723804955  -0.8301117148334445 -0.5436288019012931 -0.06834079949589195  -0.8767896192360518 -0.4652301168646771 0.06642505307190597  -0.8502971213098893 -0.5087640884239031 0.08487298972191942  -0.813650867921939 -0.5710366461860015 0.05982361825513326  -0.8301344105426031 -0.5414286589551307 0.07883886581190951  0.350346375974453 -0.1619248266993256 -0.9167863374317495  0.3829955221614991 -0.2227547563941211 -0.8899266138582006  0.3922319194123088 -0.1498080567626053 -0.903380060037302  0.3193087052334128 -0.2280900751741479 -0.9140110300222668  0.3962003039113726 -0.1045291491761893 -0.9072550553416904  0.3152921547824344 -0.09642364398049183 -0.9398378753101729  0.2816253848023177 -0.177293995129084 -0.9397842912094525  -0.2022216398033753 -0.9306143078682283 0.2910693699558944  -0.1652984845387387 -0.9414023183101183 0.2843518091034113  -0.228358997385969 -0.9322986101313334 0.2621068449920081  -0.1791771956787651 -0.9202260161542717 0.3314215931047254  -0.2296366712287935 -0.915540094489087 0.3144362339033961  -0.2006220587066829 -0.9500001374012916 0.2180822676989573  -0.1374574386033526 -0.9652122340873581 0.2071146882604225  -0.1039326457256615 -0.9403837500801027 0.3118861638774584  -0.09649531935720526 -0.9587772667008487 0.2583217278030849  0.6737402872339979 0.5009108816681745 -0.5367113592226971  0.7293065723871854 0.4402099081045192 -0.5108258953348369  0.7092800595117621 0.4873191447312836 -0.5011201889106447  0.6660942870671811 0.4630554005596578 -0.572116121958629  0.6918969052488699 0.5314391849596101 -0.4795380173604529  0.6190761361788903 0.5309463108327002 -0.5649634044134979  0.6474971086428267 0.5378554756187987 -0.5296332671634632  0.754049812069703 0.4393168629270563 -0.4711557588404937  0.6866604854764335 0.4160620567404298 -0.5827769433423196  0.7572367311326113 0.4021547787910688 -0.5015417068947432  0.7244482045179722 0.3982820099066243 -0.5465407517672931  0.7417080791066846 0.480092175783281 -0.4518736257089691  0.6510159162270187 0.4347789312102064 -0.6079291334896395  0.6259332874467806 0.4748518946794323 -0.6036269586480634  -0.9525793444156804 0.1360827634879545 -0.2721655269759087  -0.9590570602383415 0.1669817721198443 -0.2086155490726409  -0.9410052735423184 0.1904303407129594 -0.2647389221154375  -0.9694433063094996 0.1237901113690513 -0.1961767786298046  -0.9302054373418438 0.1737806920601084 -0.3085783328731356  -0.9684284009240576 0.08288232053148689 -0.2174755882641596  -0.9458922626089032 0.09534609461717306 -0.2987529028100734  -0.9306771439667828 0.1304578012973485 -0.3295222061209521  -0.9397465662751237 0.2325302333625837 -0.2277417949098195  -0.956820751372387 0.2156411659957151 -0.171228284765689  -0.9669049716960508 0.1719079151928959 -0.1641319566045815  -0.9216071214088813 0.2315365743554598 -0.2975529736193173  0.3511287326327028 0.8147511346074371 0.4518622371906273  0.3875729245202514 0.7939148681457535 0.4534745348697578  0.3761101415829007 0.7737597483472187 0.4985301222031729  0.3703803457951371 0.8225070903501241 0.4153362304643734  0.2815799023014853 0.8412973771643197 0.4494527217296329  0.335341277258281 0.851869988681712 0.3849770065428795  0.3257093455977712 0.8112297605094743 0.4851245779596626  0.4208324976556966 0.7601558314777647 0.4790064656999249  0.4320141066309172 0.7797745165517307 0.4336588343743133  0.2634015918600405 -0.4535881839216902 -0.8447871679721668  0.2480043508972241 -0.5054655070982458 -0.8186995098168737  0.3066505922990122 -0.4938433529004518 -0.811089363741029  0.2063464205674327 -0.4904811597821642 -0.8389057018580388  0.3208293543006542 -0.4398296117253607 -0.8337575991028912  0.2938307340560595 -0.3858214261560865 -0.8673987951436641  0.2461645870478882 -0.4046639518041726 -0.872808987898367  0.2092839361308229 -0.4402243401840411 -0.8671832528127995  0.267312919371805 -0.5435415583578689 -0.7875863661807578  0.20895366605932 -0.5311639720079908 -0.8123291128933442  0.3488053679583161 -0.4627838234636784 -0.8108302841740511  0.3611260827757065 -0.5200427311455204 -0.7652383991135256  0.3177604817663645 -0.538887576101938 -0.7726191319475033  -0.1501615634955656 0.08904795715733936 0.981768869663882  -0.1696965574664988 0.04281958063096702 0.9808407027588215  -0.08593089682571722 0.06661788978536864 0.9910443615126197  -0.2159675008145942 0.07375289084694941 0.9695067013268718  -0.1219241637220146 0.1515708365008426 0.9788948437720866  -0.1712511500576927 0.1358572660812009 0.9726447629572099  -0.09461360822729722 0.01141815167705309 0.9941274162341074  -0.1484090887403575 -0.002227665783078844 0.9869341045392649  -0.2086622557432045 0.01161780650633801 0.9755810517441155  -0.06066853022936051 0.1154044029697105 0.9894584599665446  -0.02912140259646039 0.06332959062851563 0.9948795888850346  -0.05294760444083525 0.02610419568709953 0.9956217050578555  0.4665612627238316 -0.8139133399617684 -0.3382956788655941  0.4780905337714802 -0.7869509751405267 -0.3750845744984246  0.4363056112574625 -0.8117914140149707 -0.373277373792542  0.5061195499174369 -0.7900251167560766 -0.3354459943701451  0.4290560835631382 -0.8330007614898346 -0.3332885432925132  0.4628547833410403 -0.8309099929842749 -0.2953887820778096  0.4401555395629621 -0.782665919530254 -0.4204820110266639  0.5089769942752871 -0.7552348866192224 -0.3952441730515794  0.4040045388893112 0.9026411303996467 -0.1192957112035585  0.342432683924265 0.9282178025160787 -0.1057041804133368  0.4200085580169783 0.9018288116432056 -0.05675037484037394  0.3776253253123509 0.8995476107793232 -0.1923133981491449  0.4548876713837315 0.8813297874705224 -0.08536106969283536  0.4172543240338899 0.890865941908293 -0.1628407593984673  0.4532188447562138 0.8793286532688325 -0.1348438432692817  0.3389847681549133 0.9345745772493919 -0.05522162376709709  0.2915791529659618 0.9499407884308904 -0.06605547978358917  0.3114389508811837 0.9307851205860662 -0.1662251402503334  0.2763948216006443 0.9518656934156433 -0.1233191921402546  0.2502306405690992 -0.2987085088393873 0.9170082888488863  0.2405334855961236 -0.2589814455521116 0.9300664570132646  0.1891425601868099 -0.3113687032318055 0.9257188063740369  0.2802154580192295 -0.2437587968999148 0.9240330367201037  0.2364662830956582 -0.357362762756416 0.8975229368199698  0.3069895145894281 -0.3157704927948146 0.8956722600278525  0.2507497257765946 -0.2179842721182612 0.9376592387709619  0.1914244509751534 -0.242631772513534 0.9462132605331117  -0.6613233403288075 -0.5375844935539222 0.5160780175423594  -0.6485765114687012 -0.5746682318219576 0.48346454074027  -0.7010366837430523 -0.541735037808043 0.4481016009392007  -0.6288816040532423 -0.5654933652466707 0.5206108821251756  -0.625654101692154 -0.5368061834727205 0.552525566260214  -0.6896212941246923 -0.4679948999987136 0.5424813684448624  -0.6970909509277686 -0.5022789436616822 0.5073877737086643  -0.6517645707005624 -0.6036034652544005 0.4396570152582113  -0.6126309325898232 -0.6199083256634375 0.4707893238712346  0.2187656840899202 0.9642540613031123 -0.1295491826646232  0.1677863614094911 0.9685698873724287 -0.1598614919547796  0.2273664296925146 0.9487753972510482 -0.196302960377593  0.1424219762396773 0.9819855079495654 -0.1077748057518182  0.2664404030427304 0.945773308328311 -0.1693993748641943  0.1712790794280865 0.9785883490555118 -0.07651214255709329  0.2130605660308573 0.9700095345532884 -0.07498291987753501  0.1625115619517365 0.9580517575371852 -0.2181529941276303  0.108039194786118 0.9753571803213703 -0.1741233026285679  0.207532562074817 0.9403883240793338 -0.2501377973011763  0.2705566246038602 0.9260661358916831 -0.2451755008961897  -0.2103442265275337 0.8833838699341695 -0.40490456822193  -0.1608452461606704 0.9002541979724821 -0.3939825794748494  -0.1990589647170059 0.905182492501499 -0.35906451316046  -0.1444233520286826 0.8700765096341729 -0.4656614370845062  -0.2512501925278945 0.8871513290484264 -0.3707496994464454  -0.2586860428304857 0.8638671939965491 -0.4157961666461258  -0.2216559971737666 0.8585349388714668 -0.4508242952851331  -0.1336827617372428 0.9268936441156563 -0.3383046655847102  -0.1157144891669158 0.8978130779552898 -0.4172760456125398  -0.09024074215340749 0.9227741327678345 -0.3604610072692598  -0.6153003665303372 -0.1081642676916606 -0.7758614120294151  -0.6005940187039311 -0.1571426206513198 -0.7813741737866948  -0.6598034577437222 -0.1645698904658377 -0.7257499410274963  -0.576489
[...]
<PointData  Scalars="f_48"> 
<DataArray  type="Float64"  Name="f_48"  format="ascii">8.1241555678698333e+01  8.0890262046974499e+01  8.0565887922565992e+01  8.1626696073873845e+01  8.1043605658229197e+01  8.1578496540071654e+01  8.2044605768353122e+01  7.4962264223649569e+01  7.7662396257311542e+01  7.3193324169469335e+01  7.7209517049119796e+01  7.0188227303268832e+01  7.4681842182243642e+01  7.7565526226005503e+01  8.0026636448371988e+01  7.9433370187300113e+01  7.8624515498908991e+01  9.0561731515580604e+01  8.7883298333510069e+01  8.8167606742713602e+01  8.7112385940545053e+01  9.0605630044127182e+01  1.0599989603550250e+02  9.0346396781857479e+01  8.6376267691591323e+01  8.5946929457014662e+01  8.5807782706115105e+01  8.5800285706108184e+01  7.0489695908741808e+01  7.0958304639579950e+01  7.1396554553960470e+01  6.9687872179380008e+01  7.1504632801143842e+01  7.0088117598817647e+01  6.9285852877838380e+01  7.3652546370489759e+01  7.3904837330566963e+01  7.3905017397719263e+01  7.3037234618748911e+01  7.3527209907659056e+01  7.4212131282710743e+01  7.5341636082755869e+01  7.7401937683252797e+01  7.8328005472943033e+01  7.9055238734635381e+01  7.9856219881875887e+01  7.9827495009841101e+01  7.8504562568395244e+01  7.9922956697279943e+01  7.7938062950449648e+01  7.8772144859972030e+01  8.0536194546762758e+01  7.8578279917838444e+01  8.0181721889908431e+01  7.9338444019435599e+01  8.0687308101047151e+01  7.7883314095502200e+01  7.7583758766068868e+01  8.5046909529983139e+01  8.5779095117782489e+01  8.4940118340983105e+01  8.5824647963949957e+01  8.4589077577398058e+01  8.5411371746471588e+01  8.4821155334568942e+01  8.4545231914300118e+01  8.5031132438802743e+01  8.6083252149157829e+01  8.6778050487893921e+01  8.4382839258415615e+01  8.0692143187925268e+01  8.1123081507620270e+01  8.1084785524488481e+01  8.0804082518911130e+01  7.9839282904066991e+01  8.0313939118429133e+01  8.0479533859391566e+01  8.1616739120068019e+01  8.1689300218451550e+01  6.4742161920953521e+01  6.0956586877175653e+01  6.7873497121582773e+01  5.0999949979345544e+01  6.8683323162661495e+01  6.7747778370425166e+01  6.4031210852883802e+01  5.6544580703045035e+01  6.3644511434738320e+01  5.5865515823464520e+01  6.9506871022385170e+01  6.9798429801590103e+01  6.8181970048453564e+01  6.6419712799314510e+01  6.6551712899851552e+01  6.7553233393260669e+01  6.6833835038572772e+01  6.6131697297393771e+01  6.5949409091660826e+01  6.6937849090134108e+01  6.6367985585887524e+01  6.6722136170560390e+01  6.9386727921886077e+01  7.1332019987065536e+01  6.8627443521039908e+01  7.5405119500192455e+01  7.5232660494818148e+01  7.4554569273673025e+01  7.5972044147576725e+01  7.4781026237274901e+01  7.5718076282314314e+01  7.4176383451003744e+01  7.5549502710133510e+01  7.8801234767691952e+01  7.7895040368214183e+01  7.9509514118172135e+01  7.7755245728813350e+01  7.9891678700464084e+01  7.8707308758640309e+01  7.9524880693370690e+01  7.8207671838938680e+01  7.7526615832796708e+01  7.7059394268847029e+01  7.6977979382294436e+01  8.2065444606839549e+01  8.2131524390483492e+01  8.2110436868349453e+01  8.2019322690064968e+01  8.1971847936330860e+01  8.2073883663147441e+01  8.1937124675777966e+01  8.2522099479236886e+01  7.7359839353739929e+01  7.7514689054799703e+01  7.8585945719567007e+01  7.6828366932074374e+01  7.6432858565679666e+01  7.7414662891505159e+01  7.7921031071876428e+01  7.8018061498011349e+01  7.7090456563013248e+01  7.6406177501314247e+01  7.6785053098772437e+01  7.5873810159134067e+01  7.7838115783061653e+01  7.6511973754014718e+01  7.7419466111871770e+01  7.6897141752996887e+01  7.6347147299009521e+01  7.8956568634605020e+01  7.5413351464294266e+01  7.5900806711384007e+01  7.7183296927919599e+01  7.6990381267279957e+01  7.6827860846061711e+01  7.7400590033195755e+01  7.7252157404328543e+01  7.7584836171884263e+01  7.7508518862777692e+01  7.7007879470447705e+01  7.7728733789839154e+01  7.8069955813575916e+01  8.1856687567518534e+01  8.1781797844342279e+01  8.2233176580587184e+01  8.1557293473205178e+01  8.2136031570300602e+01  8.1999140651975338e+01  8.1685157926261098e+01  8.1560401786934776e+01  8.1913046983466842e+01  8.1403134695185543e+01  7.1748002949561666e+01  7.3078636664792441e+01  7.1913925802665588e+01  7.2820742415554037e+01  7.0627676910709241e+01  7.2011011608397183e+01  6.9674855573495606e+01  7.3335424529122108e+01  7.4270432916078903e+01  7.3834679149870780e+01  7.0256035156639740e+01  7.0888502664483511e+01  7.2594760407869813e+01  7.1750292661919261e+01  6.8210117234183315e+01  6.8394658965445515e+01  8.2277725165717897e+01  8.2335242743660814e+01  8.2017766560278332e+01  8.2660785584655883e+01  8.1873490365909390e+01  8.2559359653845164e+01  8.1895951500283090e+01  8.2155512582446704e+01  7.8096291913121334e+01  7.8252756644735271e+01  7.7714879803739890e+01  7.8633254652252020e+01  7.7228614819908415e+01  7.7511557180169362e+01  7.8174613023870620e+01  7.8781210562428413e+01  8.0596936953819380e+01  7.9744933813991537e+01  8.0259918271448669e+01  8.0256430591547783e+01  8.1012832230757212e+01  8.0753391773015395e+01  8.1308667200870758e+01  7.9482151301967306e+01  7.9828761790725892e+01  7.9154916376330348e+01  8.0587215359153944e+01  7.9800804233524829e+01  8.1097700395866894e+01  8.0599017463860235e+01  8.1942819887935883e+01  8.0415144832856043e+01  8.1671477770636997e+01  8.0484260607016267e+01  8.1688571004950091e+01  7.9486621465993423e+01  7.9609861712433499e+01  6.5016283961403616e+01  6.7855362541888141e+01  6.4164082061910932e+01  6.7411263414496489e+01  6.2782777495938753e+01  6.1352689782851634e+01  6.4407073561077112e+01  6.5314488412358116e+01  6.6205557377742721e+01  6.8256293881828597e+01  7.1414226603082838e+01  7.0079147079571186e+01  6.0743539743197104e+01  6.4302194118114400e+01  7.8811214790954438e+01  7.8612951792655622e+01  7.9225970425287514e+01  7.8222639768872810e+01  7.9498609701633953e+01  7.8784181804560077e+01  7.9176662336835832e+01  7.8609397237155747e+01  7.7702872544824046e+01  7.8104873246175430e+01  7.6618885288412557e+01  7.5646664557041746e+01  7.5390444911989292e+01  7.6516624738498521e+01  7.6676027025881140e+01  7.7797307353390124e+01  7.7506933169596635e+01  6.8130726698727571e+01  6.7335571638713816e+01  6.7969872520035295e+01  6.6938814887843108e+01  6.9062406590354314e+01  6.9901996317930298e+01  6.9437497271289217e+01  6.7497872082692965e+01  6.7639322535833386e+01  6.6528281283481505e+01  6.8441496005761479e+01  8.0154924690744821e+01  8.0762667658340973e+01  8.1335844815886830e+01  8.4236355918290386e+01  8.3940394192468332e+01  8.4198413543634658e+01  8.3947657820154802e+01  8.4492452207946414e+01  8.4403067025099475e+01  8.4267084420066624e+01  7.2094254918570073e+01  6.8032538576728925e+01  7.0175122429272477e+01  6.9658717251583937e+01  7.2672132918348197e+01  7.1928465529202271e+01  7.4533060177938466e+01  8.3307570239669275e+01  8.2368517794005896e+01  9.1999909766662569e+01  7.8795046740115282e+01  8.9337404110915074e+01  7.9414464492147573e+01  8.3124780776421360e+01  8.8567439945871214e+01  7.8948135431209806e+01  8.1959969672846839e+01  8.1642774427777496e+01  8.0243079923116497e+01  7.5780831971972646e+01  7.5415121158768102e+01  7.4734275491997607e+01  7.6220119379682188e+01  7.5547431198101833e+01  7.6011669846090570e+01  7.6260856561201223e+01  7.6356812452136623e+01  7.6523676180977077e+01  7.5630818189114635e+01  7.7646791440305677e+01  7.5375026724941904e+01  7.6084847204027994e+01  7.6830165527851875e+01  7.5454478546684896e+01  7.6954889114523866e+01  7.8018547430585784e+01  7.9514977737697052e+01  8.0638638966805274e+01  8.0061862546191918e+01  7.9602945811168979e+01  7.9471053664203936e+01  7.8785439006788963e+01  7.8828654847417070e+01  7.4670471878442214e+01  7.0283564101175301e+01  7.5698880224397271e+01  7.7949826020197236e+01  7.2406688404311112e+01  7.0094217630803655e+01  8.3794850252488530e+01  8.2642794451311829e+01  8.3530908436778759e+01  8.3002760648159168e+01  8.4813350830285160e+01  8.4038776407553996e+01  8.2442689227943305e+01  8.1912561094731032e+01  8.1760603903600739e+01  8.3001922170464397e+01  8.4033893021163237e+01  8.5398853862106591e+01  7.9006833411096892e+01  7.9338082484788401e+01  7.9201256957160808e+01  7.8987949235922599e+01  7.8934873905125386e+01  7.8675207580696352e+01  7.8629598142733116e+01  7.8622024355364061e+01  7.9489456774322008e+01  7.9611976752932932e+01  7.9614034961299069e+01  7.9417099725759059e+01  7.9137562097192045e+01  8.3931517018030149e+01  8.2833964031787715e+01  8.2892824351924858e+01  8.3900900343689628e+01  8.5042039808392687e+01  8.3756682988659023e+01  8.5155596065330300e+01  8.1819323040987939e+01  8.2734751408028160e+01  8.2285863652499543e+01  7.8612233297832773e+01  7.8686032080700400e+01  7.8319593270302633e+01  7.8961706275122509e+01  7.8279674290378622e+01  7.8911520562877840e+01  7.8544036514813101e+01  7.8354337226595746e+01  7.9227512071955033e+01  7.8947371686294062e+01  7.7685354397877262e+01  7.7590033101435097e+01  7.7835479139705015e+01  7.7852170812966037e+01  8.0967454891687609e+01  8.0884888879474630e+01  8.0540286990727395e+01  8.1275470328078654e+01  8.0729440707927026e+01  8.1071319140953776e+01  8.0351691618854034e+01  8.1245732323069262e+01  8.0774057550194470e+01  7.6937243525697099e+01  7.6607911804064784e+01  7.7442173066108552e+01  7.6192543448933264e+01  7.7683019476641277e+01  7.6923357885507869e+01  7.7884106771424328e+01  6.3633645282935440e+01  6.1465143241426730e+01  5.6904028517374655e+01  6.6558445792743512e+01  6.2072624650338973e+01  6.5071747367174709e+01  6.7116315449055165e+01  6.7069129980961193e+01  5.0999949979345544e+01  6.2333653021780528e+01  8.3165112714799164e+01  8.3607948781208322e+01  8.3382391752134225e+01  8.3421508206850277e+01  8.3016935687022396e+01  8.3140483161552112e+01  8.2745450344634477e+01  8.2760303457959949e+01  8.3805259270923486e+01  8.3952617872888510e+01  8.3976462738734156e+01  8.3740601801867228e+01  8.3481204950101400e+01  8.3212074251357024e+01  8.6408975315642579e+01  8.6779065949144311e+01  8.6432520556843272e+01  8.6569562351088095e+01  8.6279402935628781e+01  8.6038219029401219e+01  8.6118480060248814e+01  8.7047092738210992e+01  8.6973292447084887e+01  8.6873182153864761e+01  8.6745453940439972e+01  7.4801056069671318e+01  7.4198601283822626e+01  7.4513065144071589e+01  7.3933502822120872e+01  7.4898829457653193e+01  7.5738128556403282e+01  7.4564657909719173e+01  7.4078930716916659e+01  7.4777656418780978e+01  7.4667939266401532e+01  6.7762803858121188e+01  6.6303962799005106e+01  7.1610882329651460e+01  6.3695187369071462e+01  7.2248040668987585e+01  6.9007683557800107e+01  6.5683925245652617e+01  6.9388898462244441e+01  6.1861107214201908e+01  6.4155455278562059e+01  7.4322061667256762e+01  7.5317205102161651e+01  7.3554082410725343e+01  7.8048151296439684e+01  7.3886753085838876e+01  7.5311624936140433e+01  7.2336405673240307e+01  7.1985916206399978e+01  7.4788988186247522e+01  7.4194534668530750e+01  8.1863802010263171e+01  8.1747445656076266e+01  8.1552246176871961e+01  8.1946802257910107e+01  8.1657874559703629e+01  8.1853687757817823e+01  8.2031322057179409e+01  7.8367725251959897e+01  7.8653645834445740e+01  7.7526840731492300e+01  7.8960502861657218e+01  7.7832929771533998e+01  7.8482330342289643e+01  7.8978764268590822e+01  7.9389427066607638e+01  7.7199053610498567e+01  7.6876526045811573e+01  7.5621326255270873e+01  7.4303473974577742e+01  7.2179875873178275e+01  7.7327392848983052e+01  7.9988968925183329e+01  7.6599405693740650e+01  8.5426351711306523e+01  8.4955749776826295e+01  8.5936599717469178e+01  8.4310713384594266e+01  8.6540405650975671e+01  8.5184935532589364e+01  8.1341211012413012e+01  8.1566601389329392e+01  8.1396544426505372e+01  8.1782228803789991e+01  8.1047934882846732e+01  8.1437088282794690e+01  6.7770467671138661e+01  6.8593621732660480e+01  6.7896185608244792e+01  6.8190495945294373e+01  6.6888592813910975e+01  6.7186725755553056e+01  6.8605659935439320e+01  6.9404994984973072e+01  7.0063176260528607e+01  8.1658617503085324e+01  8.1674262099551569e+01  8.0926865382657112e+01  8.2447337937685887e+01  8.0977600734904527e+01  8.1129051668473267e+01  8.2335075939405812e+01  8.1893737101507540e+01  8.1095302204024392e+01  8.1796331465842982e+01  8.2361427024701698e+01  8.1747568495519502e+01  8.1848765998639095e+01  8.5183096694115378e+01  8.5345163642018278e+01  8.4461846219916737e+01  8.5604907421596664e+01  8.4650055095899219e+01  8.5484987673898928e+01  8.4998938538379349e+01  8.4902236706608235e+01  8.6114782118228206e+01  8.4339397288110504e+01  8.3982391292651641e+01  8.3972362418167975e+01  8.3892221438539295e+01  8.2124065118837407e+01  8.2034800618640119e+01  8.1617560096936273e+01  8.2556379040991118e+01  8.1764108084676764e+01  8.2338504155906165e+01  8.2477911455364861e+01  8.1754316211579265e+01  8.2249641294781625e+01  8.1423529688064832e+01  8.1296584220358014e+01  8.1560263151740074e+01  7.1677907155776111e+01  7.3115311734575272e+01  7.2057829948198119e+01  7.3384908610460769e+01  7.2258559224964884e+01  7.0908282827152576e+01  7.1667660058835409e+01  7.1227899669704897e+01  7.3019540117592598e+01  7.5088943335181455e+01  7.7185036727817874e+01  7.8590282413667737e+01  7.9332862153826156e+01  7.9273509817071471e+01  7.8519673641636729e+01  7.8591892899754441e+01  7.8049261213612979e+01  7.7978096138374127e+01  7.9734506064730866e+01  7.9162261100112133e+01  7.9618511004343816e+01  7.9677859093676034e+01  7.9844670374134751e+01  7.9925243180681221e+01  7.9807623380095094e+01  7.9703283904376036e+01  7.9695301350318005e+01  7.9375640871466658e+01  7.9459691259741945e+01  8.0028572230045384e+01  7.9933418244705649e+01  8.0165491209429362e+01  8.0026977108388891e+01  7.6705269692330077e+01  7.5928372802105088e+01  7.6975698936597823e+01  7.5589128550649818e+01  7.7470727254374751e+01  7.6411553047090507e+01  7.7432614362346925e+01  7.7581611999399854e+01  7.6404881424508773e+01  7.5981019076445506e+01  7.5208280967198206e+01  7.7604445643579851e+01  7.7104755318803299e+01  8.0056861265959668e+01  8.0034241420933910e+01  7.9525574112727980e+01  8.0484300820048333e+01  7.9870390238483495e+01  8.0416111081030394e+01  7.9159747399234561e+01  7.9208552026675775e+01  8.0333210645822547e+01  7.9719049268965350e+01  8.8047701691317158e+01  8.7645949798726051e+01  8.7670839141630424e+01  8.8113901969108838e+01  8.8286675259011659e+01  8.8660349776194522e+01  8.7242389092120078e+01  8.7529879859459612e+01  8.7213819536506136e+01  7.7494701676033344e+01  7.7268135683529650e+01  7.7008149257269068e+01  7.7861969801155453e+01  7.7395928247359322e+01  7.7966316255222196e+01  7.8304150903157606e+01  7.6642844918022703e+01  7.7413564576538619e+01  7.6922304066616078e+01  8.1980983953202553e+01  8.1903575051350543e+01  8.1891116580734291e+01  8.2115339820067135e+01  8.1753611494912036e+01  8.1905578600840457e+01  6.0879212237180845e+01  6.2037842552824287e+01  6.4024649669158052e+01  6.2234512817486539e+01  6.3998752881955049e+01  6.3125964105268444e+01  7.6483670454120031e+01  7.4545746779051811e+01  7.1335670132734336e+01  7.8071771721685309e+01  7.9585484815114057e+01  7.9507174134488423e+01  7.6855963675546320e+01  7.1328618934534660e+01  7.0030468820128760e+01  8.4883243835371573e+01  8.4939632020928457e+01  8.4593817804894655e+01  8.5125798175020833e+01  8.4913506810174994e+01  8.4704241666688958e+01  8.4946491427138881e+01  8.5166967249189042e+01  8.4666591866960900e+01  8.5266234267856433e+01  6.8084889999920719e+01  6.7062933854820159e+01  6.8723344531889325e+01  6.4422353236623678e+01  6.8787772916380433e+01  6.9720002055806972e+01  7.2761234167651054e+01  7.3580237615299552e+01  7.2019086169757358e+01  7.3489911999202747e+01  7.1230458979329256e+01  7.3430700665274401e+01  7.2801347666842787e+01  7.1458082379262450e+01  7.2631110684358958e+01  7.4305432167785355e+01  7.3596038128158625e+01  7.4184510353961073e+01  7.1356197225384406e+01  7.8765195458837937e+01  7.8961513198386911e+01  7.5110665744463546e+01  7.9405723837143711e+01  7.5149553395259744e+01  7.8949804290716173e+01  7.8456739935925754e+01  7.6483679580380965e+01  7.9866954401471332e+01  7.9550276654893423e+01  7.1735347710742190e+01  7.2319823577888087e+01  7.3388192116161903e+01  8.2403254997074384e+01  8.2302044936480726e+01  8.2573437740126124e+01  8.2602849022548043e+01  8.2674899774461622e+01  8.2454473657276296e+01  8.2159965529422877e+01  8.1202876174209763e+01  8.0998085211728977e+01  8.2235445871271438e+01  8.0037944429684444e+01  8.1631659605117548e+01  8.0510145023505643e+01  8.1689847560229708e+01  8.0940707149568794e+01  8.0085989728198825e+01  8.6412975727237153e+01  8.5336741100794200e+01  8.7795108057330097e+01  8.7794667400672807e+01  6.5455382169856122e+01  6.3677509778350760e+01  5.3999947036954111e+01  6.6955540895208344e+01  6.5174720570887089e+01  6.6326074338750914e+01  6.3331847349495384e+01  6.6386605196565341e+01  7.9535948349326929e+01  7.8894503150090699e+01  7.9771050271419384e+01  7.8947849877921158e+01  8.0369779881383536e+01  7.9743457646849564e+01  7.8776791583254223e+01  7.7993442406103512e+01  7.8050239022639303e+01  8.0814329751573254e+01  8.0015554690075959e+01  7.9803101471708857e+01  8.3448090614223219e+01  8.2728155468665378e+01  7.9849532985585313e+01  7.8657974368506572e+01  7.9698882922007314e+01  7.7360452742761566e+01  8.2056842179165201e+01  8.3491224400491689e+01  8.3405196530667865e+01  8.2895997900869702e+01  8.2497058195520239e+01  8.2449290656051232e+01  8.2913304971449108e+01  8.3260183215306967e+01  8.2334022192836699e+01  8.2394750009210057e+01  8.2702915278794947e+01  8.2192835815965552e+01  8.2442524626349964e+01  8.2246540641260594e+01  7.4470880364448547e+01  7.4560089343835955e+01  7.3638168662924741e+01  7.5101162338700632e+01  7.4440420587097833e+01  7.4812931624343364e+01  7.5502887831208341e+01  7.5096740894524075e+01  7.4570601995630483e+01  7.8366395671486941e+01  7.9034541844680163e+01  7.8956549174074937e+01  7.8513158879185895e+01  7.8248977083820748e+01  7.7803706177335485e+01  7.7999799712508391e+01  7.9369742710162953e+01  7.9546563123611492e+01  7.9080604992297097e+01  7.8652389002168235e+01  7.9043669473622202e+01  7.9420197653417560e+01  6.5852474298855043e+01  6.7190594547573198e+01  6.3120790520282370e+01  6.5884094519470978e+01  6.9387288068343935e+01  6.8446243769323488e+01  6.7940137197803423e+01  6.6308436712096878e+01  6.8434773934173819e+01  7.0585720013504314e+01  7.1640767086853728e+01  7.1512689161301111e+01  7.1246876353213779e+01  7.0267805620266174e+01  6.9791194865119877e+01  6.9475239893986227e+01  7.2419158691647681e+01  7.2633134531578250e+01  7.2067844621385575e+01  7.0807301575961745e+01  8.0640386103402079e+01  8.1343890044996371e+01  8.1586502190858695e+01  8.1279691020159049e+01  8.1380290340007463e+01  8.1751510524581349e+01  8.1085677928502207e+01  8.1393494785313976e+01  8.1128274030550614e+01  8.1061367515736450e+01  8.1646002282482343e+01  8.1406106309038421e+01  8.1179549531452935e+01  8.1997857486531714e+01  8.2071909713066219e+01  8.1660888996754963e+01  8.1840132580277043e+01  8.2578084131569838e+01  8.2728414775682779e+01  8.2948978767636888e+01  8.2320475225496907e+01  8.2742163095334732e+01  8.2311676780863849e+01  8.2540174761922003e+01  8.2375163135506426e+01  8.2601384081339290e+01  8.2708019055646005e+01  8.3095049372979375e+01  7.8605880824671033e+01  7.8290535203376209e+01  7.8117134423095848e+01  7.8873017967000379e+01  7.9257099641328509e+01  7.8737293390777367e+01  7.7569841167202483e+01  7.8209148713012425e+01  8.6708770634963713e+01  8.6609173002050227e+01  8.6443650873435089e+01  8.6866993412968924e+01  8.6987905029450189e+01  8.6578815255235909e+01  8.7007047450842293e+01  8.6475010792226769e+01  8.6530491556317003e+01  8.6530462830461673e+01  8.6662204306309320e+01  8.2514636020097626e+01  8.3025545047960406e+01  8.3334912656726956e+01  8.2026078707053756e+01  8.2687991117868251e+01  8.1608674541571062e