<?xml version="1.0"?>
<VTKFile type="UnstructuredGrid"  version="0.1"  >
<UnstructuredGrid>
<Piece  NumberOfPoints="103" NumberOfCells="202">
<Points>
<DataArray  type="Float64"  NumberOfComponents="3"  format="ascii">-0.67631352222911 -0.5331399221619422 0.5022721606280828  -0.7810940404556734 -0.600439069123871 0.1586225238970744  -0.8657369790258196 -0.3283142333114958 0.3611189014897294  -0.5056394185074952 -0.7691724246894649 0.3744099456419585  -0.6319384669248584 -0.3018560412883434 0.7055170701026794  -0.4323920993553402 -0.5630669883934055 0.6930506151552656  -0.9503166327669577 -0.291063803843482 0.06242551515395536  -0.7522939882152206 -0.617704226166004 -0.2053495579309723  -0.4768918740254888 -0.8700421351270263 0.07409574658664103  -0.7071067811865476 0 0.7071067811865476  -0.9273009896761202 -0.02181121972696195 0.3661015332745208  -0.2123158038047877 0.4893495967123198 0.8380983505985573  -0.5308889468695521 0.3146534799374203 0.7800383235486943  -0.5472224487556725 0.6085237261660846 0.5592396765033314  -0.2768306921456182 0.0886003461724266 0.9536531465352203  -0.2159508639843182 0.7673824098385842 0.5934751322908712  0.1932392192335162 0.2983784249350009 0.9298013001231114  0.1178063400069143 0.6130161736190889 0.7771538061770633  -0.006881962374314868 0.1209267781917674 0.9916131024163559  -0.777833302041232 0.2925102085402224 0.5441209646810224  -0.8447423475696186 0.4601122435255216 0.2533262316996787  -0.6336720621499569 0.721337295435749 0.2553029662035047  -0.3457149922769726 0.8927788379023878 0.2716273149526938  -0.367553485852503 -0.3147684363865249 0.8689298117991077  -0.9887673691255094 0.1381130790348442 -0.002533653223999698  0.599697073317197 -0.1887200022869067 0.7725522550435683  0.3731957207121975 0.01141917712725672 0.9254901015419745  0.3207902320258344 -0.2720467194026535 0.903672381183573  0.7339392173461113 0.1743814223005213 0.6485782227734675  0.5007718064459838 -0.4677618621832346 0.7207102157373595  0.8003385538431436 -0.1906000618614425 0.5573684854913779  0.07622552671396807 -0.1406004975527462 0.9842034828692232  0.5144957554275266 0.5144957554275266 0.6859943405700354  0.2206025624488562 -0.5272114015682565 0.8118645465415302  -0.06564434502407943 -0.416226858342328 0.9033783972211442  0.1487765475856702 -0.7020426736022858 -0.6876002351507745  0.4028407765418975 -0.8429317998124684 -0.3373850205816085  0.09237586410583885 -0.9435502031320729 -0.3061964198987122  0.5071002358540295 -0.6567849199729934 -0.5491281812514066  -0.1885137233459879 -0.8653623510443611 -0.4561062367891551  -0.1527766801691123 -0.684926141694382 -0.7040561396026921  -0.1474419561548972 -0.4423258684646914 -0.8846517369293828  0.1940077877819272 -0.2964631951216909 -0.9303666289264483  0.49106129204461 -0.4312800285689232 -0.747234612380693  0.2822627233031454 -0.9527247877876478 -0.07241807974961315  0.5163514504794184 -0.8455276338923055 0.08412182771176561  0.6475310352197865 -0.7343107335169493 -0.1765650394189514  -0.156897337129679 -0.9799230642840229 -0.09637473400687818  -0.9420012480026667 -0.1242958547979759 -0.3022998879499356  -0.7367759069076252 -0.334321566095995 -0.5755709513432303  -0.4396303959426784 -0.6061018925726016 -0.6492856628611263  -0.48199880005616 -0.8275398384175299 -0.2718532138772932  -0.8646868344193857 0.3003207938835741 -0.3874799191243491  -0.745316609244801 0.04620596556681086 -0.6571067708826054  0.5503353476562927 0.8318919986510649 -0.02236357972944434  0.2365454742649536 0.9709496951965466 -0.00482106381309338  0.2881057108532296 0.9149128962070039 0.2728413486787409  0.4731056777011366 0.8147395875094254 -0.3299110103086027  0.5419126223535986 0.780180001010442 0.2908439811366496  0.7745302998134678 0.6180980931674184 -0.09216930005727914  0.7486350263138872 0.6312183325703973 0.1829911304189809  -0.01618623602699121 0.9722634482478807 0.2257023847861092  -0.1724827525189691 0.9761720901170412 -0.1023868633066486  0.1747218937574286 0.9274991349421584 -0.3150751446476867  0.1338239502560932 0.845681296081864 0.5058630644907638  -0.1611290503520777 -0.7140227690431631 0.6725953205926631  -0.9084195474396489 0.4115633864250423 -0.02081472343170085  -0.7622362152915915 0.6301320948188807 -0.1322741048337865  -0.4676145276964198 -0.1220768662137395 -0.8717801931997895  0.58864194990012 0.2017453744529173 -0.7764149624147366  0.7062016247723405 0.3780576288370348 -0.5842742695910641  0.4035491472538936 0.5258730998132826 -0.737607415712092  0.8927079025562445 0.1961915262685881 -0.393177896580886  0.358097709594203 0.1139454866749504 -0.921207458797584  0.6514086011238679 -0.07590306243330774 -0.7482010114396405  0.8158510112579462 0.4669984293931412 -0.333542848507892  0.1543033499620919 0.7715167498104595 -0.6172133998483676  0.07624758327960077 0.4422051223735408 -0.888711171715975  -0.3375090668276227 0.3117016003698982 -0.8837962919298271  -0.5887412100314159 0.5060725218009804 -0.6179254959432645  0.9759042238095584 0.1822323898921867 -0.08131060215034017  0.9031501585272685 0.4168244394545646 0.063942572092916  0.8867349614276825 -0.1232715551859229 -0.4409833173587828  0.9772787410790962 -0.1980895775975248 -0.01524061667447672  0.9352783160264782 -0.04829169027379884 0.3380418319165873  0.1647141837994596 -0.8313261128656999 0.5191159083323168  0.5144957554275265 -0.6859943405700355 0.5144957554275266  0.3429763730924633 -0.8840771900213822 0.3050845456832596  -0.2187620200108019 -0.9043859421274816 0.3497441619416999  0.1092371787941834 -0.9754445620278953 0.1732228725122957  0.8062216289860222 -0.4313176969508918 0.3882974868128824  0.6805239395306658 -0.6736790696532871 0.2658872602856284  -0.1185562689096245 0.8898832212858465 -0.4356598174305383  -0.4502323192861469 0.8065877646013384 -0.3687452377677333  -0.5146199758144863 0.8520874096510415 -0.02984431031710513  -0.2243457524711416 0.6589871701092 -0.7080699277304567  0.8336061466477316 0.4203292767191823 0.3406670106381339  -0.05476837942041554 -0.02478413659904643 -0.9955939717510235  0.8996481497242657 -0.3421986306741798 -0.2531292919018645  0.8315848919070551 -0.5551854304941704 0.001123532897121317  0.4263969066127243 -0.1521744344299755 -0.8897224386594598  0.737236131930146 -0.5203537855303629 -0.4120884909700663  0.7151652990975321 -0.318164243310753 -0.6119609769465465  </DataArray>
</Points>
<Cells>
<DataArray  type="UInt32"  Name="connectivity"  format="ascii">0 1 2  0 1 3  0 2 4  0 4 5  0 3 5  1 2 6  1 6 7  1 7 8  1 3 8  2 9 10  2 4 9  2 6 10  11 12 13  11 12 14  11 13 15  11 16 17  11 16 18  11 15 17  11 14 18  12 13 19  9 12 19  9 12 14  13 19 20  13 20 21  13 15 22  13 21 22  9 10 19  4 9 23  9 14 23  10 19 20  6 10 24  10 20 24  25 26 27  25 26 28  25 27 29  25 28 30  25 29 30  26 27 31  16 26 32  16 18 26  26 28 32  18 26 31  27 33 34  27 29 33  27 31 34  35 36 37  35 36 38  35 37 39  35 40 41  35 39 40  35 41 42  35 42 43  35 38 43  36 37 44  36 44 45  36 45 46  36 38 46  37 39 47  37 44 47  6 7 48  7 48 49  7 49 50  7 50 51  7 8 51  6 24 48  24 48 52  48 49 53  48 52 53  54 55 56  54 55 57  54 56 58  54 57 59  54 58 60  54 59 60  55 56 61  55 61 62  55 62 63  55 57 63  56 61 64  56 58 64  4 5 23  3 5 65  5 34 65  5 23 34  20 24 66  24 52 66  20 66 67  20 21 67  52 66 67  49 50 68  40 41 50  39 40 50  41 50 68  39 50 51  49 53 68  69 70 71  69 70 72  69 71 73  69 72 74  69 73 74  57 70 71  70 72 75  57 70 75  57 71 76  71 76 77  71 73 77  53 78 79  53 68 78  52 53 79  72 75 80  75 80 81  57 59 75  59 75 81  72 80 82  72 74 82  80 83 84  80 82 83  80 81 84  16 17 32  17 32 64  15 17 64  33 85 86  33 65 85  85 86 87  65 85 88  85 88 89  85 87 89  29 33 86  33 34 65  29 86 90  86 90 91  86 87 91  22 61 62  62 63 92  62 93 94  62 92 93  22 62 94  15 61 64  15 22 61  57 63 76  63 76 92  76 77 95  76 92 95  32 58 64  32 58 96  28 32 96  58 60 96  41 42 97  41 68 97  60 81 96  59 60 81  3 8 88  3 65 88  8 47 88  47 88 89  8 47 51  28 30 84  30 84 90  29 30 90  28 84 96  39 47 51  83 84 90  82 83 98  83 98 99  83 90 99  81 84 96  77 78 95  78 79 95  79 93 95  92 93 95  77 78 97  73 77 97  68 78 97  42 73 97  42 73 100  73 74 100  67 79 93  52 67 79  67 93 94  21 67 94  21 22 94  98 101 102  98 99 101  82 98 102  90 91 99  42 43 100  38 101 102  38 46 101  46 99 101  23 31 34  43 74 100  44 87 89  44 47 89  44 45 87  14 18 31  14 23 31  43 74 102  38 43 102  74 82 102  45 87 91  45 91 99  45 46 99  </DataArray>
<DataArray  type="UInt32"  Name="offsets"  format="ascii">3 6 9 12 15 18 21 24 27 30 33 36 39 42 45 48 51 54 57 60 63 66 69 72 75 78 81 84 87 90 93 96 99 102 105 108 111 114 117 120 123 126 129 132 135 138 141 144 147 150 153 156 159 162 165 168 171 174 177 180 183 186 189 192 195 198 201 204 207 210 213 216 219 222 225 228 231 234 237 240 243 246 249 252 255 258 261 264 267 270 273 276 279 282 285 288 291 294 297 300 303 306 309 312 315 318 321 324 327 330 333 336 339 342 345 348 351 354 357 360 363 366 369 372 375 378 381 384 387 390 393 396 399 402 405 408 411 414 417 420 423 426 429 432 435 438 441 444 447 450 453 456 459 462 465 468 471 474 477 480 483 486 489 492 495 498 501 504 507 510 513 516 519 522 525 528 531 534 537 540 543 546 549 552 555 558 561 564 567 570 573 576 579 582 585 588 591 594 597 600 603 606 </DataArray>
<DataArray  type="UInt8"  Name="types"  format="ascii">5 5 5 5 5 5 5 5 5 5 5 5 5 5 5 5 5 5 5 5 5 5 5 5 5 5 5 5 5 5 5 5 5 5 5 5 5 5 5 5 5 5 5 5 5 5 5 5 5 5 5 5 5 5 5 5 5 5 5 5 5 5 5 5 5 5 5 5 5 5 5 5 5 5 5 5 5 5 5 5 5 5 5 5 5 5 5 5 5 5 5 5 5 5 5 5 5 5 5 5 5 5 5 5 5 5 5 5 5 5 5 5 5 5 5 5 5 5 5 5 5 5 5 5 5 5 5 5 5 5 5 5 5 5 5 5 5 5 5 5 5 5 5 5 5 5 5 5 5 5 5 5 5 5 5 5 5 5 5 5 5 5 5 5 5 5 5 5 5 5 5 5 5 5 5 5 5 5 5 5 5 5 5 5 5 5 5 5 5 5 5 5 5 5 5 5 5 5 5 5 5 5 </DataArray>
</Cells>
<PointData  Scalars="f_48"> 
<DataArray  type="Float64"  Name="f_48"  format="ascii">7.6687538270829506e+01  8.9039598367070866e+01  8.1863656800192032e+01  7.5068046748756174e+01  7.0166761900756967e+01  6.3826140700692434e+01  8.8339130161174225e+01  1.0599989603550250e+02  8.2365626976944455e+01  7.2161727304565574e+01  8.1547291238995527e+01  5.0999949979345544e+01  6.6956824920915736e+01  6.9026733488925785e+01  5.7186116779589241e+01  5.9187193984300173e+01  7.9296104845257474e+01  7.8050519970533529e+01  6.5614900756075784e+01  7.4967815609275490e+01  7.9405313193451079e+01  7.4853186005027638e+01  6.7389896738132535e+01  5.3999947036954111e+01  8.9999911728256833e+01  8.5892381623057915e+01  8.2417420019063854e+01  8.5116565076617704e+01  8.9014953676574407e+01  8.4969365839130447e+01  8.7834087391784578e+01  8.2999918593836867e+01  8.5199688066770207e+01  8.4193737626571163e+01  7.6702291074533917e+01  6.4348629416198293e+01  7.5408167548478019e+01  7.4931083810211874e+01  7.3072367175668646e+01  8.2362801480599742e+01  8.0643962988043683e+01  7.9739092449383861e+01  5.0999949979345544e+01  6.8673352519357067e+01  8.0566691519726135e+01  8.1257241073013844e+01  7.9971856754700028e+01  8.1087453453614756e+01  9.0263788329716292e+01  9.2582840742378579e+01  8.5804540161680208e+01  8.7645075240970456e+01  8.6451775239925368e+01  8.7533044920003277e+01  8.4803946045920497e+01  8.7195500300561832e+01  8.5126771912641502e+01  7.8991363343105306e+01  8.6762766902228861e+01  9.1023549224646757e+01  9.2380311819236582e+01  7.4343131751348608e+01  7.2572514815082471e+01  9.1999909766662569e+01  8.0406622965193932e+01  7.4932660504491608e+01  8.4481182783638587e+01  8.1637984418212142e+01  8.4305209011662612e+01  7.0193389035512581e+01  7.7906848741149005e+01  6.8360623533478588e+01  8.4700951448925835e+01  5.3999947036954111e+01  7.2362560220844827e+01  8.6422901710976305e+01  7.9747739531613334e+01  7.2527719647794413e+01  8.2999918593836867e+01  8.3609980347422393e+01  9.3628664622266584e+01  1.0599989603550250e+02  8.1914051691805625e+01  8.9999911728256833e+01  9.0470498534744010e+01  8.6008057547336705e+01  8.3938659820906963e+01  8.2618157645467718e+01  7.6851974932464657e+01  9.1999909766662569e+01  8.6584625132620346e+01  8.4050417431344556e+01  7.6144412846790289e+01  7.8734655921846567e+01  7.5789273196569880e+01  7.7970911939996085e+01  9.4988575517055651e+01  7.1857273824355929e+01  8.3811905350567045e+01  8.4237636825094512e+01  6.4828794560396531e+01  7.8642816359656663e+01  7.5656561248876301e+01  </DataArray> 
</PointData> 
</Piece>
</UnstructuredGrid>
</VTKFile>