<?xml version="1.0"?>
<VTKFile type="UnstructuredGrid"  version="0.1"  >
<UnstructuredGrid>
<Piece  NumberOfPoints="4081" NumberOfCells="8158">
<Points>
<DataArray  type="Float64"  NumberOfComponents="3"  format="ascii">-0.1348273018851031 0.5846127405820654 0.7950140840729536  -0.1888686322562054 0.6020773663521697 0.770630757731392  -0.138836688660791 0.6318693575125172 0.7594151327575134  -0.180890737336206 0.5492589317426844 0.8079885130992814  -0.08170257608886844 0.6121579584486916 0.780029865212601  -0.0863518948809726 0.5622551945335359 0.8157756545493448  -0.1320211056493577 0.5348781124365107 0.8273006153078659  0.986311781907141 0.1097212339755825 0.1130273035807582  0.9854690084461171 0.1327639230536703 0.07878224410044612  0.991731697449372 0.09449381782571094 0.04785950858103441  0.9807608700617301 0.1462557456727524 0.1128617793219702  0.9919134234521796 0.05810053500568152 0.0815571901178304  0.9869900829983722 0.07080116182289803 0.1267811313070902  0.9795358232088138 0.1088571786751731 0.1537426529962128  0.9829718474907776 0.1620590832377239 0.02924119694447569  0.9782003125529377 0.1706024041384063 0.08283374247816275  0.9977763286358047 0.02621398955090515 0.01393524924992404  0.9940161262913876 0.1078840530892043 0.0001570895211154661  0.3485095809865917 0.3342509696066701 -0.8687328739390109  0.3919940188023396 0.2818586933009145 -0.8680842308425087  0.3179558996775769 0.3093336506508235 -0.8936385600036116  0.3923253225544037 0.3425146293502865 -0.8453499673157021  0.2845280248917481 0.3417248363537269 -0.8907957269287432  0.3079843115458744 0.3982708854748864 -0.8573540422589566  0.3727979950815656 0.387492175775661 -0.8339231828611094  0.3176582423935616 0.2645235391207545 -0.9065481970485799  0.4358207433588413 0.31875557880311 -0.836488619235894  0.423603470335472 0.2443299740563581 -0.8644994734577224  0.3948350231941309 0.2118221729562055 -0.887651838273843  0.349882200729551 0.2269084600284272 -0.9025223681586538  0.3242862832216303 -0.9309835232161255 -0.1431137616969604  0.3517112752527661 -0.9053173632004358 -0.2111690812770508  0.286811864994172 -0.9395782727792935 -0.1692512814871122  0.3720020532772148 -0.9089014886345486 -0.1599506320694281  0.3715334017961668 -0.9192445719216148 -0.08251413059316662  0.2883771570644176 -0.9483313442137207 -0.1143049816912483  0.3924626661308749 -0.8741138091589638 -0.2609151594235364  0.3608138345488041 -0.8790142434940011 -0.2940959224534458  0.3998202349016691 -0.8890460764360617 -0.1993355387842403  0.2781226344298607 -0.9318258360060784 -0.2142598215500611  0.3141064614014014 -0.9128938201026513 -0.2421139301218518  -0.9394085274916552 -0.03047146512349842 0.3287286161164836  -0.9257807989988995 -0.04596135529164064 0.3646710644078559  -0.9295826442834814 -0.08882604774542302 0.3434795841087306  -0.9329281312385858 0.02083377218939093 0.3495592706334643  -0.9501854152759077 0.01304136294105204 0.2996205246995338  -0.959560814963474 -0.02972322126277351 0.2690312118882859  -0.9533351673934641 -0.08523119939885046 0.2783317907646805  0.4316699519418941 0.6595070575551857 -0.6017177523128225  0.3918429790351989 0.6754645249618503 -0.6142250064146797  0.4524723081260548 0.6815110530341524 -0.5638421459064831  0.375707607554678 0.6530181642167526 -0.649242854547998  0.4712544238615191 0.6471218702943053 -0.5850763382661988  0.3945708953206113 0.6183626775812966 -0.6700662220019167  0.4538806394544596 0.625178622820727 -0.6197594781453198  0.3871982716980306 0.7253975189108444 -0.553101921661318  0.3339060109155439 0.7068515129402633 -0.6144485145021715  0.5107670698255611 0.6342598824984804 -0.5689643934722045  0.5144957554275265 0.6859943405700355 -0.5144957554275266  0.4510423774036496 0.7293005254329515 -0.502531230857107  0.4293199817798778 0.7129381138639626 -0.5395811401936813  0.7226155396137952 0.5836183418382892 0.3488595660371696  0.6794283475977216 0.6220723283303327 0.373394273909069  0.7151515585449415 0.6184438265794621 0.3044252596341109  0.7001734310589176 0.581603906928861 0.3929256567319316  0.7370235213091814 0.5399181067995891 0.3846253843546313  0.7500700042030162 0.572594219503572 0.3072359297007462  0.6778611638452186 0.6578313141258281 0.3217741868141566  0.6359498128537312 0.670738153130642 0.3695901762206054  0.6387766392922046 0.6306308419736067 0.4205109904519685  0.3253245378183698 0.7698244308821038 -0.5388917811077318  0.3149431558774901 0.817621681463739 -0.4787944659272704  0.3838216797179557 0.7704460951305385 -0.497386266611389  0.2682585735964921 0.8016446073141121 -0.5241044606845162  0.2560429135766084 0.7744038047608161 -0.5656550350099785  0.2810483627731434 0.7415117958580703 -0.5958308061031259  0.3412146134621502 0.7352112596687008 -0.5727467700125785  0.3734236930260927 0.8073807330638998 -0.4441729061239891  0.269610815783473 0.8362630458409883 -0.4678545414520821  0.3079081979127511 0.840595133488119 -0.4341565865263514  0.4060948242574033 0.7416246457168526 -0.5189050358381035  0.4222848066944563 0.7576157165526752 -0.4819777774581744  0.4305551628360477 0.7751480433907911 -0.4431748005855276  -0.8669156226132428 -0.4734109749673708 -0.1307292928777329  -0.8372965590227176 -0.5121176331532673 -0.1588013065598789  -0.8425125538714265 -0.5205962590807156 -0.08632204899445645  -0.8582152315171878 -0.4664862522223509 -0.1906097135200195  -0.8881080274634722 -0.4281136014480916 -0.1564695764229634  -0.8876539661188005 -0.4400065684504136 -0.1163214828007882  -0.8805713485162641 -0.4569775800906448 -0.07870048402189678  0.07503011969330767 -0.8433336359297314 0.5216452123416366  0.122332362811403 -0.8293541516309761 0.533675898886498  0.1086300028444643 -0.8042488661376717 0.575623909276019  0.1092722920221939 -0.8752999384306206 0.4635427146429657  0.0201290585829365 -0.8413058560860319 0.5355293695209229  0.04105069258670654 -0.7929319809987152 0.5994037469141018  0.04163949295974127 -0.8549847167171263 0.5080498596010972  0.06348372790161541 -0.8685360425977321 0.480771215071734  0.15396168766408 -0.8533721728924903 0.4888207804739408  0.1724636475747305 -0.8217888301869288 0.5309766761410328  0.1592857024016039 -0.7977121982664949 0.5740785733609207  -0.0287415448317339 -0.1322938067964861 -0.9883490620726856  -0.08957342927658338 -0.1535110715590763 -0.9811375535808649  -0.05053839039833953 -0.09667903798263081 -0.9914037789702115  -0.05074465044408122 -0.1864458900534113 -0.9773878381986715  -0.008961482638112233 -0.07098092724530841 -0.9955723774198235  0.0143080593255091 -0.1124251036241908 -0.9927261269412305  0.0001573573132021594 -0.1896664279559016 -0.9796351570949742  0.7001211311122741 0.5207648041347881 -0.4796373115550578  0.6803610424804247 0.4795132775048417 -0.5457810930712361  0.6542338086668819 0.5362985603840934 -0.5244534823741134  0.725834166121025 0.4473475331081094 -0.5102898604884829  0.6580037922604343 0.5785902351182988 -0.4652597100908458  0.708856702101939 0.5504463409825094 -0.4213438360955797  0.7206764706780782 0.5189762393846018 -0.4444491320542358  0.7430868391817638 0.4848931811385371 -0.4446715038995072  0.6443298669979187 0.4908247522569516 -0.5735177618467672  0.6960400229135589 0.4413676814251442 -0.552907852706324  0.6762074577078518 0.4284070218231094 -0.5874100017790402  0.615875397320199 0.6012301574889922 -0.491836741518427  0.603484966087112 0.5739075992576359 -0.5375932860803405  0.6191057142787795 0.529636449323414 -0.566243687822895  -0.7229818929987599 -0.5339180116319202 0.4189445865912945  -0.7509621442970554 -0.5430586809527342 0.3545663282102789  -0.7112663775107759 -0.5860169329739779 0.3662789912192552  -0.774199125175598 -0.4947149233481937 0.3806675851255478  -0.6730617368973901 -0.5899527217303022 0.4292293527024855  -0.6836118826543008 -0.5400510284636676 0.4824867319285834  -0.7500863184388377 -0.4918431860924817 0.4255318764588024  -0.7205775165758821 -0.5041755322809103 0.4645892324946514  -0.1827744377210906 0.9582338083092563 0.1969724902425242  -0.1497283548849325 0.9720574775929387 0.1603402770008868  -0.1420998979972077 0.9621657193480029 0.2178282064769929  -0.1953464797326786 0.9695610944584155 0.1244501376178433  -0.219042586772499 0.9381761162498539 0.2475960037096757  -0.2222580992005575 0.9549909311045375 0.1738345726735422  -0.1759181520589592 0.9502843832500879 0.2416338493123839  -0.09938208621349309 0.967210529779495 0.2166935126044323  -0.1321780231965044 0.9850684158380498 0.08783766891786829  -0.07834509549965762 0.9826913556639536 0.1483555971730081  0.06354167572006356 -0.1232742290930774 0.9880258862194538  0.0748061965674385 -0.08427470805518353 0.9906039928890484  0.1386189314133194 -0.1235599149422168 0.9814569814065021  0.01709052814778008 -0.1053229160794945 0.9930759627823716  0.1079216834825044 -0.1586821675282367 0.9785847741926805  -0.007543471667624996 -0.1365510059816666 0.9887682211957176  0.007310871187044002 -0.1731149703943987 0.9822100821150599  0.07126409857471669 -0.1875215419169656 0.9756428045945525  0.1045226479284962 -0.0565003659172091 0.9904730638452247  0.06673817141734839 -0.04453783388827791 0.9938268032661739  0.02890591474251802 -0.0567317443165028 0.9952569463452016  0.2241935431788817 -0.1085159403138829 0.9648832051055972  0.1996029537488512 -0.149239351330211 0.9643650616570132  0.1545174712998075 -0.07273160638053601 0.9818975691972143  0.1604011851505338 -0.1557168188628487 0.9708573259765445  0.9221280830522258 0.04347456906201982 -0.3746520549002093  0.9356917546683641 0.02564040599885023 -0.3405606545520251  0.9353511289871292 0.06370719404720888 -0.3352762563279477  0.9313578883443197 -0.009225244048174368 -0.3561402980732278  0.9210183782576793 0.09786116595702385 -0.3628940047898009  0.8944519320834864 0.09289183571430676 -0.4298836717669786  0.9111486638473659 -0.02844092296984387 -0.4057355141234713  0.8944487360033799 0.0273204431028734 -0.4366803908003314  0.9478791930323478 0.01252671871748889 -0.3065515558463148  0.2648366426124806 -0.3799380996695319 -0.87880078925081
[...]
<PointData  Scalars="f_48"> 
<DataArray  type="Float64"  Name="f_48"  format="ascii">7.4990693016591706e+01  7.2658096073422826e+01  7.5149608717125474e+01  7.2212976981165269e+01  7.7790732074604350e+01  7.7380122243901724e+01  7.4754635228194516e+01  8.2694959521882680e+01  8.2569689658174781e+01  8.2529997853142916e+01  8.2642165672884261e+01  8.2735449346745384e+01  8.2814449814719524e+01  8.2759224291312705e+01  8.2375403212138480e+01  8.2549803702589685e+01  8.2546463093600025e+01  8.2311394551759918e+01  7.3007963046010715e+01  7.3780008551550324e+01  7.2365698950253574e+01  7.3823484731552071e+01  7.1442803082104774e+01  7.2397331852077585e+01  7.3584496775905137e+01  7.2385792287967035e+01  7.4593390419751373e+01  7.4325363998031861e+01  7.3924843809638347e+01  7.3089135506540188e+01  7.6112756572643690e+01  7.5733105510863538e+01  7.5787492985350227e+01  7.6253870611966335e+01  7.6770574978952965e+01  7.6133103565893592e+01  7.5720805674503524e+01  7.5190648552658743e+01  7.6231208687805292e+01  7.5461831618292706e+01  7.5332133480682870e+01  8.3399369110171307e+01  8.3188175655913128e+01  8.3362889295090525e+01  8.3207500753443071e+01  8.3536084734666844e+01  8.3779392219612475e+01  8.3779428737830671e+01  7.5867356344704589e+01  7.5486070421937740e+01  7.6284211413160392e+01  7.5135116970684138e+01  7.6327706941625678e+01  7.5122623856294240e+01  7.5943243727348175e+01  7.5833890725878916e+01  7.5163374363418100e+01  7.6806118889723891e+01  7.7167970777729408e+01  7.6645212344228796e+01  7.6246497114352508e+01  8.1717623501831909e+01  8.1361664206308618e+01  8.1647217789507323e+01  8.1532931988051288e+01  8.1814112638704287e+01  8.1996678057965184e+01  8.1316386064562849e+01  8.1012679177452057e+01  8.1077360421998165e+01  7.5613730678918571e+01  7.5975060190114078e+01  7.6184104112327034e+01  7.5516287859791106e+01  7.5238421336899236e+01  7.5001196602118654e+01  7.5474926469499451e+01  7.6438237328080149e+01  7.5876876081109003e+01  7.6195321148188071e+01  7.6190870476329096e+01  7.6527989873166405e+01  7.6804374097161855e+01  8.8370019490315272e+01  8.8042174254257461e+01  1.0599989603550250e+02  8.7374285007753770e+01  8.7164834537559074e+01  8.7439272345690910e+01  8.7665633625804006e+01  8.0245505797008335e+01  7.9440964182094916e+01  7.9682427438887984e+01  7.9418080250426215e+01  8.2509428950145079e+01  8.1220520786786750e+01  8.1662681921165998e+01  8.0543196123238445e+01  7.9153026427491909e+01  7.9278664722698025e+01  7.9416903420465175e+01  8.0128853029915717e+01  8.1480522358701691e+01  8.0984383660758951e+01  8.0701865535116809e+01  7.9654884849595717e+01  7.7846898778958661e+01  7.8658408959107703e+01  7.8576290710607424e+01  7.8114651909638908e+01  7.8056354875114096e+01  7.8536869455071795e+01  7.8376876608139426e+01  7.8923427279588779e+01  7.8868547912486989e+01  7.8983097096079788e+01  7.7707232613311277e+01  7.8144525928541540e+01  7.7856372875384764e+01  7.7932186432349994e+01  7.7606277638646105e+01  7.7572324976120058e+01  8.2559924183761012e+01  8.3117335279462011e+01  8.2818642336028248e+01  8.3061026949875512e+01  8.2226003969371249e+01  8.1999553561868652e+01  8.2651065083822360e+01  8.2281697349274069e+01  7.8174664208234276e+01  7.8678571247923443e+01  7.8534508319464379e+01  7.8507752896547203e+01  7.7748814841446048e+01  7.8192267310416185e+01  7.7968344702254598e+01  7.9453513803637634e+01  7.9290210158107030e+01  8.0244535923354476e+01  7.9423977657184139e+01  7.9258528956153512e+01  8.0871250186009533e+01  7.8456219528197863e+01  8.1191691350429821e+01  7.7967253470060285e+01  7.8375053983980550e+01  7.9570153940352938e+01  7.9708707012360449e+01  7.8913578695491253e+01  7.8213638490153457e+01  8.0330380819655971e+01  8.0725342071779480e+01  8.0121227375185896e+01  8.1200826966585723e+01  7.9988163328708154e+01  8.0224126085037796e+01  8.0270016206286144e+01  8.0101181673954287e+01  8.0075645431749024e+01  7.9605774460073235e+01  7.9730809108229039e+01  7.9523232190455630e+01  8.0460125559121195e+01  6.8676947003239562e+01  7.1284318933273013e+01  7.0484413988693177e+01  6.7757078284925299e+01  6.8312659901834067e+01  6.6158191429090621e+01  7.1624798324276654e+01  7.2216365496308782e+01  7.2084451593835951e+01  7.2645876456638703e+01  7.9550662058518284e+01  7.9727117803828719e+01  7.9484976664036310e+01  7.9920065636292023e+01  7.9426546677106387e+01  7.9581912036711799e+01  8.2185699810508225e+01  8.1801530518171276e+01  8.1910762137352492e+01  8.2417183799950251e+01  8.2347307745914151e+01  8.2588815157284444e+01  8.2527945208124251e+01  8.4205690465601563e+01  8.7152969934036449e+01  7.9757945098152192e+01  8.3540111532399408e+01  7.9706937504573659e+01  8.3331541448683751e+01  8.3121197159825456e+01  8.1716347988446401e+01  8.9544159660561192e+01  8.3565548402916164e+01  8.1222692568867757e+01  8.4634575989223464e+01  8.4967593253937409e+01  8.4922837016436986e+01  8.4745469135490481e+01  8.4377570792324391e+01  8.4433049381053934e+01  8.5180006268902929e+01  8.5261729543764758e+01  8.5014049255647549e+01  7.5018874593332569e+01  7.5683966915543891e+01  7.4690374442522966e+01  7.5991236486482194e+01  7.4052488274387770e+01  7.4109829750501859e+01  7.5126304371380641e+01  7.5162853592985257e+01  7.6189556043605634e+01  7.5868445720441514e+01  7.6150521607056078e+01  7.3347514884623934e+01  7.4103694612422785e+01  7.5127917151420249e+01  7.6289191330411896e+01  7.6750958922180843e+01  7.5627635218678648e+01  7.5230105767693132e+01  7.4764694677981723e+01  7.5617963153949688e+01  7.5657255690923321e+01  8.1442945671833655e+01  8.1229980438995582e+01  8.1290894055538757e+01  8.1338309638515469e+01  8.1382209146014191e+01  8.1559626182209101e+01  8.1646957298887486e+01  8.1517731571122553e+01  8.1524523215849655e+01  8.1128522429131834e+01  8.1133182501137469e+01  8.1032299611297361e+01  8.1156481599165360e+01  7.9553492542865996e+01  7.9381968795432499e+01  7.9559244059116864e+01  7.9413503171153309e+01  7.9703244913444593e+01  7.9621840847878588e+01  7.9365058344774553e+01  7.9310641568420749e+01  7.9402495918441886e+01  8.1683636021297602e+01  8.1914786699227179e+01  8.1956362638232747e+01  8.1458434568927018e+01  8.1807710666830886e+01  8.1330852264025026e+01  8.0906648129587040e+01  8.1792370569206454e+01  8.2124907560083855e+01  8.2150991002865354e+01  7.7765708931669536e+01  7.7889963078377662e+01  7.8229383656207133e+01  7.7296372889496112e+01  7.8265036079026231e+01  7.7539940629222130e+01  7.7984194946678741e+01  7.7359066407941953e+01  7.7126323044747309e+01  7.8276035108819428e+01  7.7243823174356706e+01  7.8864048743132756e+01  7.8610786398915579e+01  7.8057254551184087e+01  7.9646114586665959e+01  7.8521569532288467e+01  7.7081164348407015e+01  7.6571785427456589e+01  7.9558741550512281e+01  8.0422481932435758e+01  8.0858226555326453e+01  8.0416406034959550e+01  7.8559706958445943e+01  7.8433753830914071e+01  8.3123607895160177e+01  7.7201380020321650e+01  7.7326110697260248e+01  8.0024051884877551e+01  8.1695472828659462e+01  7.7797423715856837e+01  7.2115939655801768e+01  7.2689015813899957e+01  7.5329950273227936e+01  5.0999949979345544e+01  7.4751681276266751e+01  6.7123812229042713e+01  7.2746120015838628e+01  7.5257376340259967e+01  7.4806653641357514e+01  6.9966818909083571e+01  7.6151855416820254e+01  7.6261224948546598e+01  8.4648748017485971e+01  8.4983795471256471e+01  8.4095802065996054e+01  8.4393896479750850e+01  8.4117708507846629e+01  8.5220599332621163e+01  8.5335366624820566e+01  7.6174771414927079e+01  7.7702568437236152e+01  7.7089341712170480e+01  7.6054279089414948e+01  7.6200121644195065e+01  7.5049683191355996e+01  7.4562926424188845e+01  7.8799880083616486e+01  7.9791324068167256e+01  7.8841386587775006e+01  7.7197764002618257e+01  7.8778187604440120e+01  7.9956260662320545e+01  8.0308620463805497e+01  8.0477603184896651e+01  7.9866935078802143e+01  7.9273658465091742e+01  7.9117415411523567e+01  7.9399917329691704e+01  8.0336402166689666e+01  7.9799228036750279e+01  8.0204099771813119e+01  8.0625815120581947e+01  8.0773423612781500e+01  8.1480669877501612e+01  8.1853536129215811e+01  8.1482168366693472e+01  8.1734819557576031e+01  8.0985924852254257e+01  8.1157185461747858e+01  8.1163666169074915e+01  8.1637301926959466e+01  8.2148458600574429e+01  8.2030422879266126e+01  8.2370164017930961e+01  8.2001763198326259e+01  8.1223816830138659e+01  8.1763392027625827e+01  8.1283426337049576e+01  8.1717564928892656e+01  8.0739232850935693e+01  8.1246960663359772e+01  8.0710627430528717e+01  8.0803648009721300e+01  8.1154048801334369e+01  8.0959241374235887e+01  8.0643068006307772e+01  8.1474101566519465e+01  8.0839797178331338e+01  8.1695492463971291e+01  8.1187581637201774e+01  8.1522470232659018e+01  8.0679361488621254e+01  8.1152257670616891e+01  7.9619172914743757e+01  7.9471020354331955e+01  7.9528516852689464e+01  7.9560034343056159e+01  7.9927140516167242e+01  7.9915326243121683e+01  7.9719323259194994e+01  7.9395364603682808e+01  7.9332225335399812e+01  7.9444449881672057e+01  7.9331804427064625e+01  7.9176081385515076e+01  7.9803601822352874e+01  7.9505800068575297e+01  7.6316827256973397e+01  7.7212230831180989e+01  7.8369126503784670e+01  7.6645827520581889e+01  7.5938057711773382e+01  7.6308811846895225e+01  7.5624416137454858e+01  7.5596073251201830e+01  7.8272245122345623e+01  7.7486989435763562e+01  7.8933514286987133e+01  8.0583364928793529e+01  8.0480766392221867e+01  8.2730829263144201e+01  8.2658275643849024e+01  8.2884554556133523e+01  8.2584714744001403e+01  8.3002306237922511e+01  8.2804920644269998e+01  8.2578960469531751e+01  8.2760467795756853e+01  8.2500458736548737e+01  8.4809152805759396e+01  8.5134242604738461e+01  8.4542083037738124e+01  8.5647894788419364e+01  8.4423060650888189e+01  8.5045169624131674e+01  8.4612889926753525e+01  8.4637922202366056e+01  8.5468118206631274e+01  8.5175553399718964e+01  8.4220231050945159e+01  8.4204943619382775e+01  7.8835147520715054e+01  7.8617449153578278e+01  7.8827031481511980e+01  7.8646371223879925e+01  7.8925667548647453e+01  7.8389028632075764e+01  7.9101126468511566e+01  8.2511407246808020e+01  8.2489478314921541e+01  8.2073902144656941e+01  8.2884586404627768e+01  8.2428329769339754e+01  8.2709969188570810e+01  8.1973777709104056e+01  8.2267001557498858e+01  8.2966280117873637e+01  8.2708823953680124e+01  7.5178385931397131e+01  7.4651255947425653e+01  7.6985687425253033e+01  7.4011742201408495e+01  7.7775757035039035e+01  7.4144928339300378e+01  7.4925910020336119e+01  7.6201408255574691e+01  7.4814595397148082e+01  8.0221578524807299e+01  8.0045103387108739e+01  7.9619416173745350e+01  7.9618256431284280e+01  8.0482997830900857e+01  8.1724103389933703e+01  8.0826577072281694e+01  8.0134770636673437e+01  7.8440302195832615e+01  7.8758490434024722e+01  7.8941175823664040e+01  7.9437034930994272e+01  7.9296643831705993e+01  7.9540850611353136e+01  7.9795334607349218e+01  8.5613698237013878e+01  8.5527830221575201e+01  8.5659314294163693e+01  8.5462150300868970e+01  8.5729358838685144e+01  8.5567715498991106e+01  8.5702841333173154e+01  8.5700609886579997e+01  8.5566192486988612e+01  8.5378684839796662e+01  8.5427023752066106e+01  8.5372455433708680e+01  8.5765679300576451e+01  8.5727598779825456e+01  7.8477093989720402e+01  8.2246932170657942e+01  8.2540735474782025e+01  8.2213859229641443e+01  8.2616994301813449e+01  8.1968841308560172e+01  8.2050188472580544e+01  8.2202608140603587e+01  8.2411762247877121e+01  7.4901080293455408e+01  7.4394951616654595e+01  7.6797177971211539e+01  7.3408923685148011e+01  7.6726440849191945e+01  7.6177456565487304e+01  7.4804791045549038e+01  7.3002300335227503e+01  7.4143639731086665e+01  7.5579631514840145e+01  8.2332415170010776e+01  8.1774413595676293e+01  8.1965498737622653e+01  8.2168809612774112e+01  8.2380422327308679e+01  8.2737586956151915e+01  8.2642750508007154e+01  8.1532559048445307e+01  8.1842820653062958e+01  8.1445902014684080e+01  7.9261988269657493e+01  8.0638761356421128e+01  8.0147402008441233e+01  7.9961514097038304e+01  7.8724954856187111e+01  7.9105015225008785e+01  7.9362919667153591e+01  8.0880532869749288e+01  8.1761916441751438e+01  8.2572505289307969e+01  8.1583927088566071e+01  8.2897698662361577e+01  8.3006643303963287e+01  8.2950121736416222e+01  8.2990944825610214e+01  8.2772352089502718e+01  8.2675813600755447e+01  8.2876755168860228e+01  8.3136171535222175e+01  8.3115810923235429e+01  8.0196126706005572e+01  7.9649156991305091e+01  8.0002471651639524e+01  7.9776892293854857e+01  8.0603399968776515e+01  8.0354876012935193e+01  7.9512997871787675e+01  7.9583148227044276e+01  7.9197069328087181e+01  8.0320675088168585e+01  7.9958801862175790e+01  7.9373868531003453e+01  7.9085846805071498e+01  7.9110096491645194e+01  7.9302937142796523e+01  7.9551155356421233e+01  7.9605627435015379e+01  7.8913441290383929e+01  7.8854784498219573e+01  7.7842414828087385e+01  7.7282050322514564e+01  7.7036070086132526e+01  7.6861292785995957e+01  7.8158771895855992e+01  7.8316581269045557e+01  7.7823341696535309e+01  7.8596764958952477e+01  8.2890965129097481e+01  8.2027790571670621e+01  8.3144741698606282e+01  8.1993195789862341e+01  8.1894849088220127e+01  8.2315670959848234e+01  8.2656577741924465e+01  8.2443655077857670e+01  8.1230688916378611e+01  8.1477243757825107e+01  8.1452166519006809e+01  8.4653849179627230e+01  8.4071701365796031e+01  8.4333519747587616e+01  8.4706559443680788e+01  8.5093085980354374e+01  8.5132035452675169e+01  7.7260332635145119e+01  7.6800246241697053e+01  7.7368098633503848e+01  7.7017249302889539e+01  7.7785193265426699e+01  7.7461016187309340e+01  7.6561496332286666e+01  7.6571706808152541e+01  7.6401050582700066e+01  7.8126931880868383e+01  7.7947310719111158e+01  7.7176509378813506e+01  8.0505646594814891e+01  8.1654788034007325e+01  8.3014405691482750e+01  8.0033204519448645e+01  8.0204233953371187e+01  8.0420449136550232e+01  8.1338834617730512e+01  8.0600574935200697e+01  8.2936523390112512e+01  8.3305906118653866e+01  8.3105026532662961e+01  8.3051437367068630e+01  8.2789647978545489e+01  8.2786353254943776e+01  8.3615442830565200e+01  8.3531320696412152e+01  8.4563113593228252e+01  8.4309023085968334e+01  8.4525934029110985e+01  8.4406372394945308e+01  8.4850796110962875e+01  8.4718947879773381e+01  8.4439560402580895e+01  8.4142710402916023e+01  8.4292916524443356e+01  8.4139891060105384e+01  8.2220826462564915e+01  8.2457530776620374e+01  8.2548415535411436e+01  8.2189500861751611e+01  8.2164297536658097e+01  8.1669097790696057e+01  8.1889539733833786e+01  8.3255408408634310e+01  8.4255418914150113e+01  8.5512083009691040e+01  8.1915466087921914e+01  8.2209791575518523e+01  8.1445446007895029e+01  8.5493628437782831e+01  8.2274292921139320e+01  8.2916669393292764e+01  8.2674147106361715e+01  9.1999909766662569e+01  8.4423614533763327e+01  8.1972938197244702e+01  8.1806616939216028e+01  8.2033644591930681e+01  8.1568788135294014e+01  8.2185815933921859e+01  8.2127835438608813e+01  8.1721842206081348e+01  8.1479270143799042e+01  8.1994159562173579e+01  8.2214548149776263e+01  8.2686930830519117e+01  8.2718440810365777e+01  8.2851349006965293e+01  8.2583349640682414e+01  8.2988003206665354e+01  8.2925213645532196e+01  8.2652339938551535e+01  8.2890038119678735e+01  8.3109596947789356e+01  7.5533822334569066e+01  7.6078034844942948e+01  7.5670622787093961e+01  7.6432272411102474e+01  7.5093607688227763e+01  7.5941790994308235e+01  7.5132233154194978e+01  7.6152945588803377e+01  7.6585366480544209e+01  7.7533507249994756e+01  7.7802717121073101e+01  7.7216381170316680e+01  7.7915748227685697e+01  7.7069226743257843e+01  7.7313588458583695e+01  7.7846033586351169e+01  7.7409480304062853e+01  7.7762442269069652e+01  7.8011703875474154e+01  7.8195816109120784e+01  7.6895140520512626e+01  7.6821701159301284e+01  8.0440980478912309e+01  8.0227670802771101e+01  8.0369707766190970e+01  8.0295926085109812e+01  8.0691997817970176e+01  8.0512737672795581e+01  8.0572662915790985e+01  8.0099949492404789e+01  8.0125520557778103e+01  8.0176618821027503e+01  8.1550461596711045e+01  8.1869255165733080e+01  8.2091968407348887e+01  8.1406895082872992e+01  8.2038981844473099e+01  8.1130795262019504e+01  8.1560379186135833e+01  7.6464928585558710e+01  7.8476125914626110e+01  7.9945440405245748e+01  7.6622902680135269e+01  7.8953901154375842e+01  7.5616427259309020e+01  7.4251126728658249e+01  7.9194778661603053e+01  8.0261461414348247e+01  8.0812391893499594e+01  7.6203836729175734e+01  7.9788241823024336e+01  7.7361094750496321e+01  7.6788708114145223e+01  8.1377541454002426e+01  8.1009160301730077e+01  8.1943590631064268e+01  8.1915817256461196e+01  8.1723509830308856e+01  8.1997137161063051e+01  8.1871504678276736e+01  8.1726870582651216e+01  8.2118169864304662e+01  8.2181220494902036e+01  7.8004838238738259e+01  7.8374992819339553e+01  7.8262481946474281e+01  7.8188055488194266e+01  7.7858018198957993e+01  7.7967413932867970e+01  7.7695965113317172e+01  7.9785678612350935e+01  7.9640550272789298e+01  7.9243016717063611e+01  8.0134835864395185e+01  7.9655805878572465e+01  8.0043524203607831e+01  7.9277674870796687e+01  8.0162693716757701e+01  7.9923208883144667e+01  7.9403159922346887e+01  7.9050941237301998e+01  7.8836591610215152e+01  7.8972166291270270e+01  7.7577925840718422e+01  7.7370675108610897e+01  7.7331997242751015e+01  7.7862844669879223e+01  7.7521886553025297e+01  7.7114109417303027e+01  7.6907479655359822e+01  7.7593073366400318e+01  7.7098932616727907e+01  8.3628700839021249e+01  8.3924971776311409e+01  8.3391694229730987e+01  8.4021958281468059e+01  8.3362791733300270e+01  8.3326106970421051e+01  8.3684247334895787e+01  8.1013470018195363e+01  8.1218868896902606e+01  8.1167939669155444e+01  8.1092391911195762e+01  8.1062890497960467e+01  8.0906578357929391e+01  8.0844423713483337e+01  8.0870351421676531e+01  8.0960615389212776e+01  8.5297799180549504e+01  8.5534234994512261e+01  8.5374782921071883e+01  8.5579154219931993e+01  8.5287876404901297e+01  8.4911276303316654e+01  8.5136083669234765e+01  8.5575691171424850e+01  8.5713353812173025e+01  8.1479679153314024e+01  8.2025800712393021e+01  8.1593186236442790e+01  8.1669889739280208e+01  8.0932143967792243e+01  8.1029903104719267e+01  8.2827975938624348e+01  8.2908114068706595e+01  8.2971099441602860e+01  8.2771526520224853e+01  8.2754794470817657e+01  8.2748525315503301e+01  8.5756445821365432e+01  8.5656837818725705e+01  8.5480866901852977e+01  7.6008091039253316e+01  7.6405054856796639e+01  7.6166472973698376e+01  7.6231584495728555e+01  7.5745617511115668e+01  7.5346585002504227e+01  7.5853920704558988e+01  7.6522237340271801e+01  7.6658980760292224e+01  7.6454350748293948e+01  7.6001016402340696e+01  7.3495391738761853e+01  7.5501218828638329e+01  7.5282212663859639e+01  7.4330848997346337e+01  7.0238908731364887e+01  7.1710227387043275e+01  7.5967122816083830e+01  7.6574569436348781e+01  7.6329827304609623e+01  7.6470391783208683e+01  7.7133801062689528e+01  7.7046582820301580e+01  7.6462582750222822e+01  7.6782093342884579e+01  5.3999947036954111e+01  7.3955458874927061e+01  7.1891462270385006e+01  7.0812408491545668e+01  7.5374005257996657e+01  7.4725796835154782e+01  7.4803585788948936e+01  7.3569527940959020e+01  7.3004068044556348e+01  7.3089108097474281e+01  7.3582702865714495e+01  7.3522946491550314e+01  7.4080626926958047e+01  7.4133080520012228e+01  8.2065159791814551e+01  8.1876480231913490e+01  8.1900293516672278e+01  8.1963399979245921e+01  8.2410557214180272e+01  8.2447420555973522e+01  8.2228194551024785e+01  8.1820468728887604e+01  8.1873527513054341e+01  8.1868912569061422e+01  8.1842123726620002e+01  8.1805511493381815e+01  8.1993824419408710e+01  7.1585605567251704e+01  7.2005199881448604e+01  7.2933705349769809e+01  7.0763686221904663e+01  7.2641049481273953e+01  7.2652925257194269e+01  7.0621786044492396e+01  6.9606207691218131e+01  7.3472863354948899e+01  7.2761818966139089e+01  7.1994139881637793e