<?xml version="1.0"?>
<VTKFile type="UnstructuredGrid"  version="0.1"  >
<UnstructuredGrid>
<Piece  NumberOfPoints="178" NumberOfCells="516">
<Points>
<DataArray  type="Float64"  NumberOfComponents="3"  format="ascii">0.22293058 -0.49968055 -0.83703119  -0.17871778 -0.49333411 -0.85128242  -0.37542525 -0.14225766 -0.91587037  0.41157657 -0.72193778 -0.556247  0.19853516 -0.9361674800000001 -0.29012811  0.84751403 -0.52907634 -0.04240569  0.73912424 -0.51868695 -0.42972025  0.43850514 -0.15385152 -0.88546205  0.75664991 -0.17243032 -0.63067305  0.6289694300000001 -0.74815804 0.21132247  0.30347744 -0.94898587 0.0855993  0.28489485 -0.54959691 0.78535217  0.62077832 -0.54730117 0.56133366  0.97062433 -0.19699152 0.13814011  0.83273727 -0.20222756 0.5154147100000001  -0.03439669 -0.75075191 0.65968806  -0.02572841 -0.94997877 0.31125325  -0.68088585 -0.5256443 0.50999278  -0.36761704 -0.53581387 0.76010603  -0.15568012 0.20317107 -0.96668768  -0.24489762 -0.19681381 0.9493627  -0.66621846 -0.7286719699999999 0.15871401  -0.33905616 -0.93877596 0.06115915  -0.19951271 -0.93264794 -0.30060336  -0.38958105 -0.7164155800000001 -0.57877034  -0.70739847 -0.15345097 -0.68995672  -0.71661639 -0.50075305 -0.48549715  -0.85508788 -0.50734621 -0.106886  -0.87868327 -0.18046372 0.44198251  -0.98415816 -0.1684573 0.05526903  -0.22293058 0.49968055 0.83703119  0.17871778 0.49333411 0.85128242  0.37542525 0.14225766 0.91587037  -0.41157657 0.72193778 0.556247  -0.19853516 0.9361674800000001 0.29012811  -0.84751403 0.52907634 0.04240569  -0.73912424 0.51868695 0.42972025  -0.43850514 0.15385152 0.88546205  -0.75664991 0.17243032 0.63067305  -0.6289694300000001 0.74815804 -0.21132247  -0.30347744 0.94898587 -0.0855993  -0.28489485 0.54959691 -0.78535217  -0.62077832 0.54730117 -0.56133366  -0.97062433 0.19699152 -0.13814011  -0.83273727 0.20222756 -0.5154147100000001  0.03439669 0.75075191 -0.65968806  0.02572841 0.94997877 -0.31125325  0.68088585 0.5256443 -0.50999278  0.36761704 0.53581387 -0.76010603  0.15568012 -0.20317107 0.96668768  0.24489762 0.19681381 -0.9493627  0.66621846 0.7286719699999999 -0.15871401  0.33905616 0.93877596 -0.06115915  0.19951271 0.93264794 0.30060336  0.38958105 0.7164155800000001 0.57877034  0.70739847 0.15345097 0.68995672  0.71661639 0.50075305 0.48549715  0.85508788 0.50734621 0.106886  0.87868327 0.18046372 -0.44198251  0.98415816 0.1684573 -0.05526903  0.7855564730309376 -0.6083105178571282 0.100312104221834  0.644712864776638 -0.7377149064490772 -0.1913386138522727  0.2632735079289175 -0.4484873081501845 0.01145176795815361  0.5028814454847836 -0.1940948567986469 -0.2373245682708936  0.8501921669063837 0.1435401134198507 -0.5040585705139893  0.7091330088366492 0.5230385318633572 -0.4682908344150604  0.4529083926545515 0.2189314486224698 -0.1327821676241818  0.9658967795343297 0.1619060991171785 -0.1982746248007041  -0.4469075167953087 -0.151295342922444 0.2182005473382745  -0.5819062408832074 0.2420743315862444 0.7746111650741437  -0.08027408267454195 0.1134609554594441 0.5001225639387489  -0.371435015372557 0.321322266206285 0.1798877073000904  -0.4600357893867195 0.2985298928142694 -0.2288404842076257  -0.9965722338304764 0.06766445518012476 -0.03074853166796261  -0.4023328763566841 -0.1097158367000074 -0.3025569825992476  -0.2274084259800854 0.7769978989977711 0.5843401521540856  0.0473736727372311 0.9709514954776157 0.2306261444608783  0.1757455406425055 0.7985456238849562 0.5725802347699587  0.1889662476433009 0.4184717948032436 0.2279423920002639  -0.2494543496445923 -0.5531513020856826 -0.7940094479540731  -0.2303811502588411 -0.7829332818175776 -0.5757843387113564  0.04331287166830153 -0.6763609638284109 -0.7337387400201947  0.1379227950993862 -0.1890066553777984 -0.4627052289921239  -0.6200539746263396 0.6755966648740662 -0.3949455883080631  -0.6033140425475911 0.7854402450894105 -0.1297772677237791  -0.8158946958876039 0.575273978900722 -0.0361048906188574  0.7452650469805537 -0.5066124498821456 0.4314867757821319  0.4961327792075954 -0.8133938139134912 0.2993620445308105  -0.2134927056494776 -0.4765207438782427 -0.05338089901132792  -0.08576716496569904 0.477998712206688 -0.1727845869816732  0.06428243465332258 0.9642365197998377 -0.2571297386132901  -0.3519409875921743 0.9197900560592245 -0.1674839145751226  -0.1077529154282103 0.993497599503556 -0.01927918444818953  -0.8034130892440946 -0.5253642377599004 0.2744751580257585  -0.7077050788997845 -0.706441772886913 -0.0001280735005469334  -0.8522918088161264 -0.4978428376537375 -0.1523410891229361  -0.834695827833587 -0.04185897089508742 0.5465821841262501  -0.6680899571975712 -0.4504004263880668 0.5896434740967913  0.8184141580609292 -0.5059230045743752 -0.2652395775790218  0.6570740067954147 -0.5488472423128811 -0.5132070006556393  0.8921411447574297 -0.1690056887519295 -0.4158310630571087  0.9213302727824439 -0.135166854170304 0.3631651652883179  0.4074532781893328 -0.03383811823967553 0.3132747996428643  0.6495914859910287 -0.2263613379688817 0.7246497351917864  0.000194379205892603 -0.0002260520527176402 0.0003277472272248394  -0.7564641748008354 0.1615221483639197 -0.6320347085438905  -0.9098016621272983 -0.1440214351365816 -0.3865446088266372  -0.5107029716748135 -0.686695778945535 -0.5167691384000703  -0.5568900989230111 -0.7955572841757302 -0.238667185252719  -0.567236509117782 -0.7838482138466509 0.2485976070684736  0.4831625545367223 -0.7619277228244203 -0.4283345194223983  -0.1472479904553697 -0.8666779519886431 0.4740496034422186  -0.03716348958213794 -0.3520706750007414 0.3775661494208865  -0.1200442713395952 -0.9718817015786809 0.2002898610025375  0.417076689281538 -0.6013320239444868 0.6806518218510944  -0.9579163191846851 -0.229897953981002 0.1645141757405153  -0.9630403650820867 -0.2361529913022097 -0.1212293734631819  0.6350379271511479 0.1941993698631627 -0.7456594420396543  0.2889684537644558 0.1903525626526203 -0.5084521441548537  0.8972389287495761 -0.3798615131877958 0.2237378726112142  0.2844056854388519 -0.2869654010443746 0.9136123262788063  0.4171456064195904 0.104101841781217 0.9015669767912049  -0.1209292586927406 -0.9676526784267693 -0.2174366063328127  -0.1217311290721525 0.1782816373154455 -0.509516555946301  0.1512828262035331 0.5680898660697905 -0.8071729993662191  0.9401071270650712 -0.3352994871005266 -0.05207435038922547  0.9914998960045988 0.06233917097342604 0.112157550907911  -0.3675732499371643 0.5130531997715186 0.7730051695098166  -0.04563333898034529 0.458598262691348 0.8859658298890603  -0.4264923057636378 0.1411799349686093 -0.8924947160217869  -0.6293053481942223 -0.1279885717345728 -0.7650555968211924  0.9002734023866537 0.3200879369644472 0.2915468732223643  -0.3347805587746917 -0.2198092999274261 -0.9150705402285659  0.6635950443728278 0.5858523235018908 0.4609259598457314  0.8020940234088374 0.5937340660263768 -0.04172926668935045  0.7400521767738841 0.1730881839308588 0.6471683718190434  0.9356890195627681 0.3496081519622389 0.01191035113985488  -0.3852035212669043 -0.9221087443408482 0.01190233221009563  0.5142462007708167 0.8335880160346087 0.1932347593007996  0.5063669954322113 0.8295553306644243 -0.2285231931721513  -0.6043605582557385 0.5899363677999425 0.5334399251070393  -0.9072035476086245 0.3173087735087691 -0.2712815735490567  -0.3238692422157702 -0.3243215554044477 0.8870488252562532  0.2801165284758275 0.9590608454087413 -0.005359036515015215  -0.7513957833529281 0.4290660991710638 -0.4999455869259355  0.3106841462912913 0.7422107862723599 -0.5918925204677725  0.2519203235908015 -0.9666616910499383 -0.02903205148629875  0.1472043308085136 -0.870176076270355 0.4678964358844087  0.4056340506915085 0.5185879755518246 0.7512159226810131  0.2476123145846746 0.2868462431987512 -0.9241995542811592  0.4574994587349098 0.4806230413957511 -0.7454359771203201  0 0 1  0.159846415567143 0.2501688090962548 0.9538153827787481  0.2152038439765243 -0.8642814885266277 -0.452285689622124  -0.487298015499513 0.4914035725478139 -0.7188913127044123  -0.01698475455133449 -0.6567123969777677 0.752245394667538  -0.373085517922688 -0.7155716036307334 0.5877006065858792  -0.04836736220370061 0.004292826664773871 -0.9986148863690754  -0.2937766323501892 0.9152645916294928 0.2718338062879787  -0.6040297675997071 -0.1496202715746236 0.7817133888724395  -0.9211342841210532 0.3272817255562169 0.2039282261361939  0.359138927363301 -0.5693256501409951 -0.7373461852447671  -0.5960890225086509 0.7858457401481962 0.1576383030813005  -0.3275091125026557 0.8116900630834679 -0.4830539951315116  0.03077958895026103 0.8438556571242837 -0.5336395216176245  -0.1372816900309819 0.6757122812877856 -0.7221994975810104  -0.9559005306677323 0.04250424734363391 0.2869749299372161  0.3323375650820748 -0.1048613068198022 -0.9361281132420217  0.6446583712203043 -0.2417468892076142 -0.7252406676228423  -0.7998061948925532 0.2948938714303136 0.5194973518586581  -0.1266414327582938 0.3613040689630579 -0.9230269295161946  -0.5381002587738934 -0.4535702107741628 -0.7071020901272502  -0.7678615609845092 -0.4336471669480021 -0.4675195176577304  -0.01553150155575365 -0.3884486965044869 0.920597536394808  0.0006610423861779619 -0.4003698164386636 -0.9160170369028791  0.4399159530955683 0.7668232039872047 0.4630584370424986  -0.3487373191148021 0.02712979254494303 0.9356328265457627  -0.7673814566168372 0.5729936554913775 0.28196269994107  </DataArray>
</Points>
<Cells>
<DataArray  type="UInt32"  Name="connectivity"  format="ascii">13 63 102 126  63 66 102 104  63 66 82 104  63 66 102 126  66 102 126 131  59 63 66 126  14 55 102 135  58 63 66 67  59 63 66 67  6 8 63 99  13 101 102 126  101 102 126 131  101 102 131 135  14 101 102 135  3 63 82 99  66 78 102 104  66 78 102 131  57 66 78 131  26 74 107 171  25 74 130 171  82 132 157 174  74 130 132 171  2 74 130 132  50 82 157 167  82 157 167 174  58 63 67 100  6 8 63 100  14 55 102 103  14 86 102 103  12 86 102 103  12 14 86 103  12 102 103 114  13 63 102 119  13 101 102 119  14 86 102 119  14 101 102 119  16 111 112 147  15 111 112 147  16 111 112 113  11 15 112 147  11 102 112 114  11 112 114 147  12 102 112 114  87 112 114 147  0 7 82 167  0 82 167 174  63 82 99 168  8 63 99 168  56 57 78 131  56 102 131 135  56 78 102 131  57 66 78 134  70 71 75 78  70 71 75 127  30 70 75 127  30 70 75 128  70 75 78 128  30 37 70 127  30 37 70 128  69 70 71 127  37 69 70 127  37 70 128 176  70 71 78 104  37 69 70 159  70 128 151 176  70 78 102 104  70 102 104 112  70 128 151 152  38 69 70 71  37 70 159 176  20 70 151 176  31 70 128 152  31 70 78 128  20 49 70 151  31 32 70 152  32 70 151 152  32 49 70 151  75 77 78 128  31 77 78 128  53 76 77 78  53 76 78 143  71 72 74 104  1 82 132 174  1 74 82 132  26 74 88 107  26 88 107 108  74 82 88 104  22 88 113 122  22 88 111 113  88 111 112 113  88 113 122 146  16 88 112 113  58 63 64 100  8 63 64 100  58 63 64 66  28 96 97 159  15 111 112 156  17 18 97 156  17 97 112 156  18 97 112 156  88 111 112 156  13 63 119 125  5 63 119 125  63 67 100 125  59 63 67 125  13 63 125 126  59 63 125 126  55 102 103 121  32 70 102 121  32 49 70 121  5 60 63 119  10 16 62 147  16 62 112 147  10 62 87 147  62 87 112 147  16 62 88 112  10 16 62 113  16 62 88 113  9 10 62 87  10 62 113 146  62 88 113 146  62 88 104 112  62 63 102 104  62 102 104 112  62 63 82 104  62 82 88 104  9 12 62 87  12 62 102 112  4 62 122 146  62 88 122 146  4 62 88 122  62 63 102 119  60 62 63 119  9 60 62 86  12 62 86 102  9 12 62 86  12 62 112 114  12 62 87 114  62 87 112 114  3 62 63 82  5 60 62 63  62 86 102 119  60 62 86 119  20 49 70 173  20 70 112 173  49 70 112 173  3 63 99 110  3 62 63 110  80 81 82 88  0 81 82 174  1 81 82 174  3 82 99 161  82 99 161 168  3 81 82 161  0 81 82 161  0 7 82 161  7 82 161 168  69 71 127 140  36 71 140 177  71 72 73 160  36 71 160 177  31 54 77 148  54 77 78 148  31 77 78 148  56 78 102 148  31 32 70 148  31 70 78 148  55 102 135 148  56 102 135 148  55 56 135 148  55 102 121 148  32 102 121 148  32 55 121 148  32 70 102 148  70 78 102 148  47 66 139 145  58 64 65 66  47 58 64 65  58 65 66 67  65 66 67 134  47 65 66 139  66 78 134 138  53 78 138 143  57 78 134 138  59 66 67 136  66 67 134 136  57 66 134 136  57 66 131 136  66 126 131 136  59 66 126 136  38 68 69 159  68 69 70 159  38 68 69 70  38 68 96 159  38 68 70 71  68 96 97 159  28 68 96 97  18 68 97 159  18 68 97 112  28 68 96 166  17 68 97 112  17 28 68 97  68 70 71 104  68 70 104 112  28 68 115 166  68 88 104 112  17 68 112 156  68 71 74 104  68 74 88 104  68 73 160 166  68 71 73 160  68 71 160 166  27 68 74 88  68 71 72 73  68 72 73 74  68 71 72 74  27 68 88 94  21 68 88 94  34 75 77 78  34 76 77 78  34 71 75 78  29 68 73 166  29 68 115 166  74 105 129 130  25 74 105 130  44 72 74 105  46 89 90 92  89 90 92 143  40 46 89 92  76 89 92 143  76 78 89 143  66 78 89 139  46 89 90 145  66 78 89 104  34 76 89 92  34 76 78 89  66 89 139 145  89 90 139 145  34 71 78 89  71 78 89 104  71 72 89 104  71 72 84 89  41 89 163 165  39 72 84 89  39 83 89 163  72 83 89 163  39 72 83 89  72 83 85 141  39 72 83 85  39 72 84 85  71 72 84 85  74 79 132 171  1 74 79 132  1 74 79 82  74 79 82 88  79 80 82 88  79 80 81 82  1 79 81 82  88 94 108 137  21 88 94 137  23 88 108 137  23 88 122 137  22 88 122 137  88 94 95 108  27 88 94 95  26 88 95 108  26 74 88 95  27 74 88 95  27 68 74 95  22 88 109 137  21 88 109 137  22 88 109 111  88 109 111 156  21 68 88 109  88 109 112 156  68 88 109 112  68 109 112 156  17 68 109 156  6 63 98 100  63 98 100 125  5 63 98 125  102 103 120 121  70 102 120 121  49 70 120 121  11 102 112 120  11 102 114 120  102 103 114 120  11 103 114 120  70 102 112 120  49 70 112 120  49 112 120 173  11 112 120 173  20 112 142 173  18 112 142 173  20 70 112 142  18 68 142 159  18 68 112 142  20 142 159 176  20 70 142 176  70 142 159 176  68 70 142 159  68 70 112 142  18 112 155 173  15 18 155 156  15 112 155 156  18 112 155 156  11 15 112 155  11 112 155 173  9 10 61 62  9 60 61 62  10 61 62 146  5 60 61 62  4 61 62 146  4 61 62 110  6 61 63 98  6 61 63 99  61 63 99 110  6 61 99 110  61 62 63 110  5 61 62 63  5 61 63 98  3 81 82 153  3 62 82 153  81 82 88 153  62 82 88 153  4 62 88 153  3 62 110 153  4 62 110 153  80 81 88 153  23 80 88 153  4 23 122 153  23 88 122 153  4 88 122 153  33 71 75 127  33 71 127 140  38 69 71 169  69 71 140 169  36 71 140 169  36 71 160 169  71 160 166 169  68 71 166 169  38 68 71 169  68 96 166 169  38 68 96 169  43 72 73 160  43 72 73 74  43 44 72 141  51 66 78 139  51 66 78 138  51 78 138 139  51 66 134 138  51 65 66 139  51 65 66 134  47 51 65 139  52 78 138 143  52 78 138 139  52 78 89 143  52 78 89 139  52 89 90 143  52 89 90 139  53 78 138 175  54 77 78 175  53 77 78 175  56 57 78 133  57 78 133 138  78 133 138 175  54 78 133 175  54 78 133 148  56 78 133 148  28 68 93 115  17 28 68 93  27 68 93 115  17 68 93 109  21 68 93 109  27 68 93 94  21 68 93 94  34 71 75 158  33 71 75 158  40 71 89 158  34 71 89 158  40 89 92 158  34 89 92 158  27 68 95 116  27 68 115 116  29 68 115 116  68 74 95 116  68 73 74 116  29 68 73 116  41 89 154 163  72 89 154 163  40 84 89 91  46 89 91 163  40 46 89 91  39 89 91 163  39 84 89 91  123 124 165 170  41 123 165 170  41 89 123 165  45 123 124 165  45 89 123 165  123 124 149 170  41 123 129 170  41 89 123 154  72 89 123 154  74 82 104 123  41 123 129 154  72 74 104 123  72 89 104 123  19 50 123 170  50 123 149 170  19 123 129 170  105 123 129 154  72 105 123 154  74 105 123 129  72 74 105 123  19 50 123 157  2 19 123 129  2 19 123 157  2 74 123 132  74 82 123 132  2 74 123 130  2 123 129 130  74 123 129 130  2 123 132 157  82 123 132 157  46 89 145 164  45 89 145 164  46 89 163 164  89 163 164 165  45 89 164 165  23 24 80 88  24 74 107 171  24 74 79 171  24 74 88 107  24 74 79 88  24 79 80 88  23 24 88 108  24 88 107 108  35 43 72 160  35 71 72 160  35 71 72 85  35 72 85 141  35 43 72 141  35 71 160 177  33 71 158 162  71 140 162 177  33 71 140 162  71 84 85 162  40 71 158 162  35 71 162 177  35 71 85 162  40 71 89 162  71 84 89 162  40 84 89 162  74 95 106 116  25 74 105 106  44 74 105 106  44 72 74 106  43 72 74 106  43 44 72 106  43 73 74 106  73 74 106 116  42 72 83 163  42 72 154 163  45 118 124 145  45 89 118 145  48 118 124 145  45 118 123 124  45 89 118 123  48 118 124 149  118 123 124 149  66 89 118 145  48 118 149 150  48 118 145 150  66 89 104 118  89 104 118 123  47 66 118 145  47 118 145 150  66 82 104 118  82 104 118 123  117 118 149 150  50 118 123 149  47 117 118 150  50 117 118 149  50 82 118 157  82 118 123 157  50 118 123 157  47 64 117 118  63 66 82 118  50 82 118 167  50 117 118 167  47 65 66 118  64 65 66 118  47 64 65 118  63 64 66 118  63 82 118 168  7 82 118 167  7 117 118 167  8 63 64 118  8 64 117 118  8 63 118 168  8 117 118 168  7 82 118 168  7 117 118 168  26 74 95 172  74 95 106 172  25 74 106 172  25 74 171 172  26 74 171 172  72 105 144 154  42 72 144 154  44 72 105 144  44 72 141 144  72 83 141 144  42 72 83 144  83 85 141 144  </DataArray>
<DataArray  type="UInt32"  Name="offsets"  format="ascii">4 8 12 16 20 24 28 32 36 40 44 48 52 56 60 64 68 72 76 80 84 88 92 96 100 104 108 112 116 120 124 128 132 136 140 144 148 152 156 160 164 168 172 176 180 184 188 192 196 200 204 208 212 216 220 224 228 232 236 240 244 248 252 256 260 264 268 272 276 280 284 288 292 296 300 304 308 312 316 320 324 328 332 336 340 344 348 352 356 360 364 368 372 376 380 384 388 392 396 400 404 408 412 416 420 424 428 432 436 440 444 448 452 456 460 464 468 472 476 480 484 488 492 496 500 504 508 512 516 520 524 528 532 536 540 544 548 552 556 560 564 568 572 576 580 584 588 592 596 600 604 608 612 616 620 624 628 632 636 640 644 648 652 656 660 664 668 672 676 680 684 688 692 696 700 704 708 712 716 720 724 728 732 736 740 744 748 752 756 760 764 768 772 776 780 784 788 792 796 800 804 808 812 816 820 824 828 832 836 840 844 848 852 856 860 864 868 872 876 880 884 888 892 896 900 904 908 912 916 920 924 928 932 936 940 944 948 952 956 960 964 968 972 976 980 984 988 992 996 1000 1004 1008 1012 1016 1020 1024 1028 1032 1036 1040 1044 1048 1052 1056 1060 1064 1068 1072 1076 1080 1084 1088 1092 1096 1100 1104 1108 1112 1116 1120 1124 1128 1132 1136 1140 1144 1148 1152 1156 1160 1164 1168 1172 1176 1180 1184 1188 1192 1196 1200 1204 1208 1212 1216 1220 1224 1228 1232 1236 1240 1244 1248 1252 1256 1260 1264 1268 1272 1276 1280 1284 1288 1292 1296 1300 1304 1308 1312 1316 1320 1324 1328 1332 1336 1340 1344 1348 1352 1356 1360 1364 1368 1372 1376 1380 1384 1388 1392 1396 1400 1404 1408 1412 1416 1420 1424 1428 1432 1436 1440 1444 1448 1452 1456 1460 1464 1468 1472 1476 1480 1484 1488 1492 1496 1500 1504 1508 1512 1516 1520 1524 1528 1532 1536 1540 1544 1548 1552 1556 1560 1564 1568 1572 1576 1580 1584 1588 1592 1596 1600 1604 1608 1612 1616 1620 1624 1628 1632 1636 1640 1644 1648 1652 1656 1660 1664 1668 1672 1676 1680 1684 1688 1692 1696 1700 1704 1708 1712 1716 1720 1724 1728 1732 1736 1740 1744 1748 1752 1756 1760 1764 1768 1772 1776 1780 1784 1788 1792 1796 1800 1804 1808 1812 1816 1820 1824 1828 1832 1836 1840 1844 1848 1852 1856 1860 1864 1868 1872 1876 1880 1884 1888 1892 1896 1900 1904 1908 1912 1916 1920 1924 1928 1932 1936 1940 1944 1948 1952 1956 1960 1964 1968 1972 1976 1980 1984 1988 1992 1996 2000 2004 2008 2012 2016 2020 2024 2028 2032 2036 2040 2044 2048 2052 2056 2060 2064 </DataArray>
<DataArray  type="UInt8"  Name="types"  format="ascii">10 10 10 10 10 10 10 10 10 10 10 10 10 10 10 10 10 10 10 10 10 10 10 10 10 10 10 10 10 10 10 10 10 10 10 10 10 10 10 10 10 10 10 10 10 10 10 10 10 10 10 10 10 10 10 10 10 10 10 10 10 10 10 10 10 10 10 10 10 10 10 10 10 10 10 10 10 10 10 10 10 10 10 10 10 10 10 10 10 10 10 10 10 10 10 10 10 10 10 10 10 10 10 10 10 10 10 10 10 10 10 10 10 10 10 10 10 10 10 10 10 10 10 10 10 10 10 10 10 10 10 10 10 10 10 10 10 10 10 10 10 10 10 10 10 10 10 10 10 10 10 10 10 10 10 10 10 10 10 10 10 10 10 10 10 10 10 10 10 10 10 10 10 10 10 10 10 10 10 10 10 10 10 10 10 10 10 10 10 10 10 10 10 10 10 10 10 10 10 10 10 10 10 10 10 10 10 10 10 10 10 10 10 10 10 10 10 10 10 10 10 10 10 10 10 10 10 10 10 10 10 10 10 10 10 10 10 10 10 10 10 10 10 10 10 10 10 10 10 10 10 10 10 10 10 10 10 10 10 10 10 10 10 10 10 10 10 10 10 10 10 10 10 10 10 10 10 10 10 10 10 10 10 10 10 10 10 10 10 10 10 10 10 10 10 10 10 10 10 10 10 10 10 10 10 10 10 10 10 10 10 10 10 10 10 10 10 10 10 10 10 10 10 10 10 10 10 10 10 10 10 10 10 10 10 10 10 10 10 10 10 10 10 10 10 10 10 10 10 10 10 10 10 10 10 10 10 10 10 10 10 10 10 10 10 10 10 10 10 10 10 10 10 10 10 10 10 10 10 10 10 10 10 10 10 10 10 10 10 10 10 10 10 10 10 10 10 10 10 10 10 10 10 10 10 10 10 10 10 10 10 10 10 10 10 10 10 10 10 10 10 10 10 10 10 10 10 10 10 10 10 10 10 10 10 10 10 10 10 10 10 10 10 10 10 10 10 10 10 10 10 10 10 10 10 10 10 10 10 10 10 10 10 10 10 10 10 10 10 10 10 10 10 10 10 10 10 10 10 10 10 10 10 10 10 10 10 10 10 10 10 10 10 10 10 10 10 10 10 10 10 10 10 10 10 10 10 10 10 10 10 10 10 10 10 10 </DataArray>
</Cells>
<PointData  Scalars="f_37"> 
<DataArray  type="Float64"  Name="f_37"  format="ascii">5.1000000000000000e+01  6.8346176421771673e+01  7.9533210677285339e+01  6.3299254503334339e+01  7.5117963598631235e+01  8.2490909617257330e+01  6.7335642615167473e+01  4.9018932294210330e+01  6.1467806135953140e+01  8.9195139763859274e+01  8.5967934282454877e+01  9.0195445658523468e+01  9.3289277631988469e+01  9.0000000000000000e+01  9.4252016325490203e+01  8.7582681876434222e+01  9.2000000000000000e+01  7.8102648410471105e+01  6.9824618548632515e+01  8.3000000000000000e+01  5.4000000000000000e+01  9.0424440813194181e+01  9.2350149921608050e+01  8.2692970614222645e+01  8.1711887619325793e+01  9.7337675285664901e+01  9.8595437891240579e+01  1.0600000000000000e+02  7.4399129198776293e+01  9.1475970359290073e+01  5.1000000000000000e+01  6.8247726381228659e+01  8.4045850111415177e+01  6.0171283371431393e+01  7.4016769187995124e+01  8.1173766977637484e+01  6.4874533537165874e+01  4.7884781463884700e+01  5.6722516599681512e+01  8.6642989769272575e+01  8.3629310445091932e+01  9.3646789864983134e+01  9.5036800394481560e+01  9.0000000000000000e+01  9.8262679948663305e+01  8.7753349280615836e+01  9.2000000000000000e+01  8.0629493226539878e+01  7.1853265516307488e+01  8.2999999999999986e+01  5.4000000000000000e+01  9.5402496923992103e+01  9.4148241543597351e+01  8.4413566475022549e+01  8.4448211239802930e+01  9.6434774846537522e+01  9.7336150726147835e+01  1.0600000000000000e+02  7.5835470301558459e+01  9.1701147109390376e+01  8.6388560556863510e+01  7.6043716291597960e+01  8.2706355132933098e+01  7.6579285009116674e+01  7.2820061085436777e+01  8.2054896615523930e+01  8.3018012093562945e+01  8.6266726171725693e+01  8.1699646974888907e+01  5.0905436788624975e+01  6.9131354017234202e+01  7.7201647944221520e+01  8.8264699877736419e+01  8.9047278710206385e+01  9.3467166489871445e+01  6.1336929105722824e+01  8.1669716077996469e+01  7.4984386403986306e+01  8.4141935062038186e+01  7.1966736280317292e+01  7.5309024208172588e+01  6.4001902067208647e+01  7.0201038615910832e+01  9.1270070637213010e+01  8.4551640285434189e+01  8.3149684795300757e+01  9.3137978919823496e+01  9.0803964267798790e+01  8.9143657194613567e+01  8.7043893669992556e+01  9.2120781071516603e+01  8.5721498917309901e+01  8.4103170108453710e+01  8.7007911362464313e+01  9.8554628687302227e+01  1.0689104489936646e+02  6.5068902636787499e+01  7.3488772634532125e+01  7.4279974895711121e+01  6.4217580974993652e+01  7.1685759108645144e+01  9.4902101905207772e+01  8.7643776806256753e+01  9.4586375083153598e+01  8.3486825248191408e+01  9.9121994613486521e+01  9.9977133962580453e+01  8.8428940312670392e+01  9.5936164609461215e+01  8.5386856949991540e+01  6.7219260980905972e+01  8.8118274679610295e+01  8.2149845272816052e+01  9.3536603141206626e+01  9.1931622107536725e+01  8.8627375559532126e+01  9.9382043000507750e+01  6.1197225968577385e+01  7.0009530129328681e+01  8.9790330638778556e+01  8.9960530740972999e+01  8.6052582199295074e+01  8.3932484011681154e+01  8.5909210430554722e+01  7.6385032497161617e+01  8.3500472385296064e+01  9.4451818713184579e+01  5.0478283601502305e+01  5.6882847044940952e+01  9.0548003357967801e+01  9.4541884210197310e+01  1.0284034217424269e+02  7.5415143185139712e+01  9.6865807952280974e+01  1.0133998617167452e+02  9.8204942327032654e+01  9.8761367870960640e+01  9.2444323302355173e+01  9.8303094090146075e+01  9.4163150058351249e+01  5.9899081078113710e+01  9.1595751615421847e+01  5.6818205232860102e+01  9.2616970777367030e+01  9.6315946358251040e+01  8.3764074033598234e+01  8.3485068070955251e+01  9.1192934198884075e+01  8.0919772602855389e+01  5.7641604892016574e+01  6.9812414614355745e+01  6.7305714302155735e+01  7.0195452365288318e+01  6.9301774208693658e+01  9.5619292203035926e+01  8.2416297159640166e+01  8.0250718644866893e+01  6.2386527714493766e+01  7.3597188263720014e+01  5.5150450558093738e+01  7.8246813054630536e+01  5.4856926798475058e+01  7.6709796100415844e+01  9.3171295188507017e+01  8.9726274368965605e+01  9.1673017168911372e+01  7.8122923907433332e+01  4.8087761764465462e+01  5.6381180911327263e+01  6.0851020791308798e+01  8.6060675407524471e+01  8.8376243004588105e+01  1.0063358109179006e+02  7.3805031748903559e+01  5.7898791965907229e+01  8.9414185683509302e+01  5.0568850116507498e+01  7.1748791131462241e+01  </DataArray> 
</PointData> 
</Piece>
</UnstructuredGrid>
</VTKFile>