<?xml version="1.0"?>
<VTKFile type="UnstructuredGrid"  version="0.1"  >
<UnstructuredGrid>
<Piece  NumberOfPoints="99" NumberOfCells="194">
<Points>
<DataArray  type="Float64"  NumberOfComponents="3"  format="ascii">-0.2845903988457742 -0.7194537619208159 -0.622291728328575  0.0003067926023503026 -0.6916921595003398 -0.7197252868279974  -0.1475604829736887 -0.8949982811739396 -0.4153385426317566  -0.3244428422615251 -0.4866642633922876 -0.8111071056538127  -0.5516099242296555 -0.6662990292829748 -0.4907411219148906  0.3781701789810561 -0.6897382419802787 -0.6054237392471782  0.1802523976425408 -0.881852100998559 -0.4273790862920998  0.3731560055735522 -0.4556816300464385 -0.8009259473078519  0.1915892405007224 -0.2559148816081485 -0.9428960459937678  -0.1261596892302337 -0.2797320520237192 -0.9505832095474819  0.4997604267640982 -0.02928073420832138 0.8601684147985035  0.7267393251962575 0.04585027887855336 0.6797935215358138  0.4866642633922876 -0.3244428422615251 0.8111071056538127  0.4100491189428789 0.3399664487425095 0.8385363327919617  0.228253979527233 0.03265062943902103 0.9703861397163185  0.8220182514650443 -0.1831172188774565 0.5263344521571063  0.6822462791457399 0.4024788485855822 0.5980096807731292  0.8720738778548156 0.1580814702645731 0.4577993734329522  -0.06350849174729634 -0.9876840724309935 -0.1251865097222319  0.2510056499567574 -0.9586583631731627 -0.1161334327955773  0.1607338805423097 -0.9640432859813644 0.1897303369493242  -0.1578915144864629 -0.967393659504494 0.1756851231936808  -0.4724735914724768 -0.8692247240199249 -0.1178249127783125  0.6510992180532009 -0.7463783226817613 0.101337455573841  0.4916469981448575 -0.8121122552223018 -0.3081190177350644  -0.9027782223922438 0.1327404579371813 0.4000487990139483  -0.7457378648390494 0.3327597219328267 0.5651120989674371  -0.7715167498104595 -0.1543033499620919 0.6172133998483676  -0.8080456334248427 0.4943985651205622 0.3163031376977118  -0.9864076466141868 -0.116155010880024 0.1051715356925773  -0.9601319692838024 0.2648077227928094 0.04500940547531834  -0.5423475579417651 0.280293099574407 0.7837325679538913  -0.5620704043331297 -0.03391058349114748 0.8228335377431245  -0.540773489721316 0.6714686203985609 0.4984691711197197  -0.7540575684012893 0.1088189374341831 -0.6418487287575384  -0.670228735484125 0.378527781131688 -0.6299642992942776  -0.9106454643752375 0.2156988215662719 -0.3352298602918876  -0.4732658271667141 0.1774251800713121 -0.8572724758757793  -0.9484818834265989 -0.1553061760392377 -0.2695531111894655  -0.7617743056883746 -0.2472278269632146 -0.5859080206410063  -0.5099236771020512 -0.1794558413339564 -0.8334068091141392  -0.7907654584259907 0.5051842920384269 -0.3354184212793871  -0.5694725289382032 0.6207798044171704 -0.524733518069715  -0.4348652582637971 0.4683064317460564 -0.7582421256914589  0.5962368122546572 -0.1349154479334544 -0.7875431389282512  0.8758461831368969 0.1832992144992661 -0.4382781909389138  0.6716036299329471 0.2939480476797877 -0.6739165974289261  0.8846517369293828 -0.1474419561548971 -0.4423258684646914  0.3506991612999635 0.03455830943066363 -0.9317794963861694  0.624221083419076 -0.4437486085204687 -0.6281466587192318  0.7480130248875114 0.4969010754990946 -0.424084636468624  0.9944231055265644 -0.007837129893783958 -0.09285584604188638  0.9092435429946449 0.3678131577919705 -0.1656559898588474  0.2918323103849231 0.6377952543652003 -0.7046232339515731  0.1898820933397719 0.3240899238002933 -0.9206649015940804  -0.09928609762925425 0.6875261278179294 -0.7102901975327878  0.118207213427463 0.8603814319170328 -0.486175584756138  -0.295741617187648 0.8004650886188384 -0.5137409443675049  -0.1735969420851708 0.3837434896135178 -0.9013556900543001  0.5240946721322839 0.7394811503041785 -0.4026413516791893  0.1549332555690306 0.9506553700582829 0.2611147752490487  0.4259927026746398 0.8067394016013779 0.3927207779076032  0.5761750231629365 0.8133699464914772 -0.01786826221262273  0.2307802433595766 0.7167931060391932 0.6482729827907852  -0.1299093100341301 0.9867268080019651 0.06545068026681236  -0.146829294027359 0.8918378340023888 0.423983925026638  0.2365510605682128 0.9543455243013705 -0.1627947885484005  0.700141292136981 0.6340908748702598 0.3118492322859555  0.4641443501861931 0.5622834301866274 0.6751284711132852  0.7544641190757858 -0.4570921099234988 0.4526589944550731  0.9102050871775997 -0.4071883016288051 0.0312324256094041  0.5125795352117729 -0.6452472254327416 0.556648001352797  0.2713282777733741 -0.838767988543706 0.4614022246050613  0.7385820746197831 -0.5778085628168159 -0.3272849450376039  0.9497329932593352 -0.06467314567661617 0.2924245954896891  -0.7995278851631371 -0.5746112202600387 -0.1492181708461781  -0.8594819596261726 -0.4582896865035148 0.2060540633833892  -0.7004346477528973 -0.6957909479540957 0.1089180458954795  -0.001742777232138221 -0.8209643248139228 0.5680949789914491  0.9152264516765753 0.3191627289415087 0.2228737303372811  0.7976011744958635 0.595451988665194 0.01729402356928185  -0.4232713337119841 0.8738528024995087 0.213501535804358  -0.7129273074366318 0.686132816253459 -0.09175483591817218  -0.4849572803906868 0.8230393825309212 -0.2820743239739265  -0.6132756332019242 -0.6733145198985884 0.3970784506399782  -0.6846489238717034 -0.4380690622422511 0.5699129387956181  -0.4559311059089368 -0.8629708627871142 0.19829220826385  -0.2850805156766043 -0.8185803753148979 0.4907505666493657  -0.4427346976529627 -0.5901266492392423 0.662984576014672  0.253327472209416 -0.6034508541573402 0.7457660706538791  0.09394763269212358 -0.321970027909394 0.9374794279859744  -0.1800262060065067 0.9409651082113215 -0.2753058859946443  -0.003156590808558465 0.3980956448722937 0.9167056267614186  -0.2747341645296028 0.2710078842154308 0.9186635403989233  -0.2245537459015652 0.6789949554406962 0.6879977834930102  -0.151129865303568 0.006304341628768514 0.9862173903092668  -0.1147778440531292 -0.6316085740264836 0.762093918872779  -0.4225285066879064 -0.3181173663805247 0.8427431917189125  -0.1039323105453846 0.0355255818953888 -0.991926895012131  </DataArray>
</Points>
<Cells>
<DataArray  type="UInt32"  Name="connectivity"  format="ascii">0 1 2  0 1 3  0 2 4  0 3 4  1 5 6  1 5 7  1 2 6  1 8 9  1 7 8  1 3 9  10 11 12  10 11 13  10 12 14  10 13 14  11 12 15  11 13 16  11 15 17  11 16 17  18 19 20  6 18 19  18 20 21  2 18 22  18 21 22  2 6 18  19 20 23  19 23 24  6 19 24  25 26 27  25 26 28  25 29 30  25 27 29  25 28 30  26 31 32  26 31 33  26 27 32  26 28 33  34 35 36  34 35 37  34 36 38  34 38 39  34 37 40  34 39 40  35 36 41  35 41 42  35 37 43  35 42 43  44 45 46  44 45 47  44 46 48  7 44 49  44 47 49  8 44 48  7 8 44  45 46 50  45 51 52  45 47 51  45 50 52  46 50 53  46 53 54  46 48 54  53 55 56  53 54 55  55 56 57  54 55 58  43 55 58  43 55 57  53 56 59  50 53 59  60 61 62  60 61 63  60 64 65  60 64 66  60 62 66  60 63 65  61 67 68  61 62 67  61 63 68  23 69 70  23 69 71  20 23 72  23 70 73  23 24 73  23 71 72  69 70 74  12 69 71  12 15 69  15 69 74  29 38 75  29 75 76  29 30 38  27 29 76  38 39 75  75 76 77  22 75 77  4 22 75  4 39 75  30 36 38  20 21 78  20 72 78  5 49 73  47 49 73  5 7 49  51 52 79  51 74 79  51 70 74  47 51 70  52 79 80  50 52 80  67 79 80  16 67 79  17 74 79  16 17 79  81 82 83  28 81 82  64 81 83  64 65 81  28 33 81  33 65 81  30 41 82  28 30 82  41 82 83  16 67 68  62 67 80  13 16 68  13 63 68  30 36 41  47 70 73  5 24 73  41 42 83  76 77 84  76 84 85  77 84 86  84 86 87  84 87 88  84 85 88  27 76 85  22 77 86  12 71 89  71 72 89  12 14 90  12 89 90  5 6 24  50 59 80  59 62 80  64 83 91  64 66 91  57 83 91  56 57 91  56 66 91  42 57 83  2 4 22  21 22 86  3 4 39  13 14 92  13 63 92  31 32 93  31 93 94  31 33 94  92 93 95  92 93 94  32 93 95  21 86 87  21 78 87  78 87 96  87 88 96  27 32 97  27 85 97  32 95 97  90 95 97  88 96 97  90 96 97  85 88 97  15 17 74  8 48 98  48 54 98  8 9 98  14 92 95  63 92 94  14 90 95  56 59 66  3 9 40  9 40 98  3 39 40  37 58 98  37 40 98  37 43 58  54 58 98  72 78 89  78 89 96  89 90 96  42 43 57  59 62 66  33 65 94  63 65 94  </DataArray>
<DataArray  type="UInt32"  Name="offsets"  format="ascii">3 6 9 12 15 18 21 24 27 30 33 36 39 42 45 48 51 54 57 60 63 66 69 72 75 78 81 84 87 90 93 96 99 102 105 108 111 114 117 120 123 126 129 132 135 138 141 144 147 150 153 156 159 162 165 168 171 174 177 180 183 186 189 192 195 198 201 204 207 210 213 216 219 222 225 228 231 234 237 240 243 246 249 252 255 258 261 264 267 270 273 276 279 282 285 288 291 294 297 300 303 306 309 312 315 318 321 324 327 330 333 336 339 342 345 348 351 354 357 360 363 366 369 372 375 378 381 384 387 390 393 396 399 402 405 408 411 414 417 420 423 426 429 432 435 438 441 444 447 450 453 456 459 462 465 468 471 474 477 480 483 486 489 492 495 498 501 504 507 510 513 516 519 522 525 528 531 534 537 540 543 546 549 552 555 558 561 564 567 570 573 576 579 582 </DataArray>
<DataArray  type="UInt8"  Name="types"  format="ascii">5 5 5 5 5 5 5 5 5 5 5 5 5 5 5 5 5 5 5 5 5 5 5 5 5 5 5 5 5 5 5 5 5 5 5 5 5 5 5 5 5 5 5 5 5 5 5 5 5 5 5 5 5 5 5 5 5 5 5 5 5 5 5 5 5 5 5 5 5 5 5 5 5 5 5 5 5 5 5 5 5 5 5 5 5 5 5 5 5 5 5 5 5 5 5 5 5 5 5 5 5 5 5 5 5 5 5 5 5 5 5 5 5 5 5 5 5 5 5 5 5 5 5 5 5 5 5 5 5 5 5 5 5 5 5 5 5 5 5 5 5 5 5 5 5 5 5 5 5 5 5 5 5 5 5 5 5 5 5 5 5 5 5 5 5 5 5 5 5 5 5 5 5 5 5 5 5 5 5 5 5 5 5 5 5 5 5 5 5 5 5 5 5 5 </DataArray>
</Cells>
<PointData  Scalars="f_71-0"> 
<DataArray  type="Float64"  Name="f_71-0"  format="ascii">4.4876485520451091e+01  3.1964745874237430e+01  4.3587769214907695e+01  4.6550669995725869e+01  5.4953890823366116e+01  3.6563295188314839e+01  2.6863186401786585e+01  5.1000000000000007e+01  4.2753823451241729e+01  4.7806898755368046e+01  3.0880256914493486e+01  4.3619884768902111e+01  2.6541919342660570e+01  2.3668292520026924e+01  2.2177490979905201e+01  5.3240977813235979e+01  4.2912858966196914e+01  6.0138817036302115e+01  5.6963348318647910e+01  2.0767899109001689e+01  2.5346543363195195e+01  9.2000000000000000e+01  4.9146789911395466e+01  2.6809096060966883e+01  2.7737568986070787e+01  5.7488116343094823e+01  4.7374808741571798e+01  4.8135102555729937e+01  5.3042176215464025e+01  6.4853635577153113e+01  9.0000000000000000e+01  4.3608579643876894e+01  4.4181253455560686e+01  4.2127139095765635e+01  5.5097787090532989e+01  5.1813867188460137e+01  6.3605268415703641e+01  5.6680072444922324e+01  6.6370897585249452e+01  6.0037871771543855e+01  5.3642543504399150e+01  5.3938815108627161e+01  4.8851507058199260e+01  5.7070716909353287e+01  3.6267631880800593e+01  4.4699101911261423e+01  4.0568871778574490e+01  3.9282903863497054e+01  3.8452609634200975e+01  3.5294839953257629e+01  4.9946405693139305e+01  5.5054367713601202e+01  6.2297382760571232e+01  4.1997277705110641e+01  5.4000000000000000e+01  6.2062677912408127e+01  4.2992395588202591e+01  6.9778551053887938e+01  6.9951549215262801e+01  4.0909161698785091e+01  1.9429472905831371e+01  3.0904148671179275e+01  5.0829052169890709e+01  1.9265267340102266e+01  6.5503734058209545e+01  5.0053781592558188e+01  2.4391408602475138e+01  5.8654911310865231e+01  2.8690722607283121e+01  3.8191895791506347e+01  4.5399290082815462e+01  2.8643988219637350e+01  3.1703342311750060e+01  3.1461639144803282e+01  9.0000000000000000e+01  1.0600000000000000e+02  6.6615113796091308e+01  6.9104649304507433e+01  5.8451142604721504e+01  6.6005310266094185e+01  1.0600000000000000e+02  4.1075877944936906e+01  4.8858555539739378e+01  4.6507580274191909e+01  5.1263661623217700e+01  4.9010887920197547e+01  5.0204506852409615e+01  5.9097201534030653e+01  4.6754553014574000e+01  5.0853576960405952e+01  8.3000000000000000e+01  9.2000000000000000e+01  3.4896437668236423e+01  4.8273353815783267e+01  5.1000000000000000e+01  5.4000000000000000e+01  6.5261686856658329e+01  4.2434968108367343e+01  8.3000000000000000e+01  </DataArray> 
</PointData> 
</Piece>
</UnstructuredGrid>
</VTKFile>