<?xml version="1.0"?>
<VTKFile type="UnstructuredGrid"  version="0.1"  >
<UnstructuredGrid>
<Piece  NumberOfPoints="60" NumberOfCells="116">
<Points>
<DataArray  type="Float64"  NumberOfComponents="3"  format="ascii">0.2292614005592495 0.4984476855911691 0.8360556342269777  -0.1857434270499828 0.4923445976840308 0.8503508240824814  0.4074178117279967 0.7222731576937597 0.5588670401223793  -0.1617490836910377 -0.2030229354749168 0.9657218935636698  0.4471464666460482 0.1504532298012303 0.8817164810817959  0.2499399634171827 -0.1934030710795726 0.9487493467843227  -0.3818604947597419 0.1406360799270588 0.9134571420569059  -0.7097143600231326 0.1519763508258513 0.6879017277141073  -0.3940151927705859 0.7161832189017969 0.5760498321143525  -0.7194919117394774 0.499227953806291 0.4828074038774806  -0.6203247696065419 -0.5397325302435672 0.569109609059498  -0.8332130961358925 -0.1938877912461526 0.5178446977505117  0.202001968623872 0.9356599535364634 0.2893712781154559  0.7458839045110033 0.5143193497937598 0.4232411782129528  -0.2024189480069022 0.932603118864557 0.2987940321575331  0.6318112439349015 0.7441827106210626 -0.2168105815410978  0.3059453585767073 0.947691802301072 -0.09098166642690218  0.851215479836853 0.5235506202299945 0.03642803977593607  0.971239112220462 0.1909423943987021 -0.1422516356502476  0.6203247696065419 0.5397325302435672 -0.569109609059498  0.8332130961358925 0.1938877912461526 -0.5178446977505117  0.7633026169120036 0.1682686335217461 0.623742398384641  0.8785799459104576 -0.1754008959145102 0.4442204258207806  0.6849866983568725 -0.5191721446092359 0.5111297426689608  0.9847482362192987 -0.1643980715552028 0.05695609560817427  -0.02588761486709851 0.948113240395226 -0.3168774446866804  0.2804643265969663 0.5463179884278877 -0.7892251180673335  0.1617490836910377 0.2030229354749168 -0.9657218935636698  -0.0366399943532485 0.7449552643858709 -0.6661073967730269  -0.2499399634171827 0.1934030710795726 -0.9487493467843227  0.3818604947597419 -0.1406360799270588 -0.9134571420569059  0.7097143600231326 -0.1519763508258513 -0.6879017277141073  -0.3712185634514392 0.5335212518222902 -0.7599683021206384  -0.3411469453323585 0.9378540383555195 -0.06362695000732324  -0.6849866983568725 0.5191721446092359 -0.5111297426689608  -0.6673885752586363 0.7280714903176141 -0.1565388382468352  -0.4471464666460482 -0.1504532298012303 -0.8817164810817959  -0.8577392095268913 0.5035574346457606 0.1035057233848604  -0.8785799459104576 0.1754008959145102 -0.4442204258207806  -0.2804643265969663 -0.5463179884278877 0.7892251180673335  -0.2292614005592495 -0.4984476855911691 -0.8360556342269777  -0.9847482362192987 0.1643980715552028 -0.05695609560817427  -0.7633026169120036 -0.1682686335217461 -0.623742398384641  -0.971239112220462 -0.1909423943987021 0.1422516356502476  0.1857434270499828 -0.4923445976840308 -0.8503508240824814  -0.4074178117279967 -0.7222731576937597 -0.5588670401223793  0.3940151927705859 -0.7161832189017969 -0.5760498321143525  0.7194919117394774 -0.499227953806291 -0.4828074038774806  -0.202001968623872 -0.9356599535364634 -0.2893712781154559  -0.7458839045110033 -0.5143193497937598 -0.4232411782129528  0.2024189480069022 -0.932603118864557 -0.2987940321575331  -0.6318112439349015 -0.7441827106210626 0.2168105815410978  -0.3059453585767073 -0.947691802301072 0.09098166642690218  -0.851215479836853 -0.5235506202299945 -0.03642803977593607  0.02588761486709851 -0.948113240395226 0.3168774446866804  0.0366399943532485 -0.7449552643858709 0.6661073967730269  0.3712185634514392 -0.5335212518222902 0.7599683021206384  0.3411469453323585 -0.9378540383555195 0.06362695000732324  0.6673885752586363 -0.7280714903176141 0.1565388382468352  0.8577392095268913 -0.5035574346457606 -0.1035057233848604  </DataArray>
</Points>
<Cells>
<DataArray  type="UInt32"  Name="connectivity"  format="ascii">0 1 2  0 1 3  0 2 4  0 4 5  0 3 5  1 3 6  1 6 7  1 2 8  1 8 9  1 7 9  3 6 10  6 7 11  6 10 11  2 12 13  2 12 14  2 4 13  2 8 14  12 13 15  12 15 16  12 14 16  13 15 17  13 17 18  15 17 19  17 19 20  17 18 20  4 13 21  13 18 21  4 21 22  4 5 23  4 22 23  18 21 24  21 22 24  15 16 25  15 19 26  15 25 26  14 16 25  19 26 27  25 26 28  26 28 29  26 27 29  19 20 30  19 27 30  18 20 24  20 30 31  20 24 31  25 28 32  28 29 32  25 32 33  14 25 33  29 32 34  32 34 35  29 34 36  34 35 37  34 37 38  34 36 38  32 33 35  3 10 39  3 5 39  29 36 40  27 29 40  8 33 35  8 9 35  9 35 37  8 14 33  7 9 41  7 11 41  9 37 41  37 38 41  38 41 42  36 38 42  41 42 43  11 41 43  40 44 45  27 40 44  36 40 45  27 30 44  30 31 44  44 45 46  44 46 47  31 44 47  45 48 49  45 48 50  36 45 49  45 46 50  48 49 51  48 51 52  48 50 52  49 51 53  43 49 53  10 51 53  10 11 53  11 43 53  36 42 49  42 43 49  51 52 54  10 39 51  39 51 54  50 52 54  39 54 55  5 39 55  54 55 56  5 55 56  54 56 57  50 54 57  5 23 56  23 56 58  23 58 59  22 23 59  56 57 58  46 57 58  46 47 58  47 58 59  46 50 57  24 31 47  24 47 59  22 24 59  </DataArray>
<DataArray  type="UInt32"  Name="offsets"  format="ascii">3 6 9 12 15 18 21 24 27 30 33 36 39 42 45 48 51 54 57 60 63 66 69 72 75 78 81 84 87 90 93 96 99 102 105 108 111 114 117 120 123 126 129 132 135 138 141 144 147 150 153 156 159 162 165 168 171 174 177 180 183 186 189 192 195 198 201 204 207 210 213 216 219 222 225 228 231 234 237 240 243 246 249 252 255 258 261 264 267 270 273 276 279 282 285 288 291 294 297 300 303 306 309 312 315 318 321 324 327 330 333 336 339 342 345 348 </DataArray>
<DataArray  type="UInt8"  Name="types"  format="ascii">5 5 5 5 5 5 5 5 5 5 5 5 5 5 5 5 5 5 5 5 5 5 5 5 5 5 5 5 5 5 5 5 5 5 5 5 5 5 5 5 5 5 5 5 5 5 5 5 5 5 5 5 5 5 5 5 5 5 5 5 5 5 5 5 5 5 5 5 5 5 5 5 5 5 5 5 5 5 5 5 5 5 5 5 5 5 5 5 5 5 5 5 5 5 5 5 5 5 5 5 5 5 5 5 5 5 5 5 5 5 5 5 5 5 5 5 </DataArray>
</Cells>
<PointData  Scalars="f_40"> 
<DataArray  type="Float64"  Name="f_40"  format="ascii">1.3237712481290809e-01  0.0000000000000000e+00  1.5297228917461275e-01  1.0245859899949215e+00  4.5106970024438831e-01  6.8684042585987692e-01  1.0000000000000000e+00  9.5101134159428702e-01  2.0538540792739463e-01  5.8329025694125147e-01  1.0314859342578711e+00  1.0367314042807954e+00  2.0832719355817916e-01  4.2262379420702872e-01  2.0366058903725742e-01  7.2312427777810895e-01  5.0522078671334802e-01  6.5700624732464263e-01  8.0553236440370679e-01  1.0314859342579799e+00  1.0367314042807874e+00  4.8612650628798321e-01  6.0455229880317296e-01  6.1794256199615294e-01  6.9273946235813855e-01  5.8363559778222951e-01  1.0522739708182196e+00  1.0245859899949925e+00  8.0275006566869822e-01  6.8684042585995964e-01  1.0000000000000000e+00  9.5101134159424139e-01  7.2003921157061090e-01  4.3200306964161417e-01  6.1794256199629971e-01  5.3754833530801205e-01  4.5106970024443643e-01  6.1383949477239541e-01  6.0455229880323169e-01  1.0522739708180759e+00  1.3237712481291800e-01  6.9273946235817752e-01  4.8612650628801529e-01  8.0553236440372844e-01  0.0000000000000000e+00  1.5297228917456354e-01  2.0538540792729323e-01  5.8329025694115089e-01  2.0832719355804294e-01  4.2262379420700980e-01  2.0366058903709458e-01  7.2312427777798227e-01  5.0522078671315995e-01  6.5700624732461177e-01  5.8363559778197505e-01  8.0275006566848717e-01  7.2003921157044848e-01  4.3200306964139351e-01  5.3754833530783808e-01  6.1383949477229183e-01  </DataArray> 
</PointData> 
</Piece>
</UnstructuredGrid>
</VTKFile>