<?xml version="1.0"?>
<VTKFile type="UnstructuredGrid"  version="0.1"  >
<UnstructuredGrid>
<Piece  NumberOfPoints="4116" NumberOfCells="8228">
<Points>
<DataArray  type="Float64"  NumberOfComponents="3"  format="ascii">-0.9841786119376351 0.01400481885113533 -0.1600805646689706  -0.9826582260375355 -0.03823625249977135 -0.1610080104306929  -0.9709313590530535 -0.03221062596128427 -0.2258143284851552  -0.9943019772589712 0.001050574399553373 -0.1018294190226406  -0.9758987906781194 0.05437879823326561 -0.1930742687977997  -0.9888299083325662 0.04589879033938808 -0.124284779435168  -0.6453736903605198 0.04644983597431598 0.7549207600171444  -0.6673579843585868 0.01435481415974544 0.7388292205108037  -0.6718262362736693 0.08018363580674524 0.7291448871977697  -0.6189438627312422 0.02317581417215871 0.7779885161324389  -0.6289891371196873 0.08357783764676488 0.7661187579839364  0.8592024162844718 -0.4066306241224293 -0.2886864610602242  0.8747599689430763 -0.3548444205124909 -0.3144923284758018  0.8778843828395509 -0.3718295010733021 -0.2806172424878045  0.8400851562750773 -0.4013431088062016 -0.3452228535312643  0.8737948014362267 -0.4000693924660624 -0.2500618433578556  0.8376415567446224 -0.4459561647054548 -0.2993132871437751  0.8566820678090803 -0.4425656606072099 -0.2408104533055493  0.8924637643238966 -0.3371453338966506 -0.2861151109242028  0.844522359145047 -0.3486714743073568 -0.3880117616142661  0.8800840984824014 -0.3022083668162914 -0.3533502145830026  0.9054448443093189 -0.3027841754713625 -0.2952118613316874  0.8949964577799191 -0.3534549863125686 -0.2520632502434484  0.9177064753598536 -0.2723777950314618 0.2772441696688646  0.895932609991273 -0.2595126328544721 0.3467003178387283  0.9106069761372394 -0.2104220775432583 0.3383811281754369  0.9017086720889482 -0.296505028165522 0.3107471767381536  0.929649987202589 -0.1986866380912446 0.2956222781154874  0.9182186028501962 -0.3018538432676893 0.2393451600416436  0.9311901398426694 -0.233115418251949 0.26184413289543  0.9301257166134633 -0.2636182269833705 0.2356564673377643  0.8827976518092164 -0.1968170452275735 0.4147886576685764  0.8683079287888105 -0.241428443851668 0.4173107101631448  0.8709555774744824 -0.2781929029914411 0.3881927739418333  0.871783922903534 -0.3286573627768919 0.3473077621661719  0.9036662343181304 -0.1788309879406157 0.3747056615914975  0.9233552060929243 -0.1640919861406148 0.3320029313462444  -0.294716558736519 0.08259555303530081 0.9479623781145876  -0.3404905720598985 0.08320997281194779 0.9313456167033343  -0.303895587785066 0.1278836688344751 0.9409980513656238  -0.3349836483003245 0.03132163766992781 0.9372539944025984  -0.2532214478577465 0.1048394191190711 0.9591417991311446  -0.2545624680142282 0.06348571535994907 0.9623231913320751  -0.2854283399584431 0.03714830624125439 0.9536233501823029  -0.3495746977280024 0.1308725931862342 0.9227694140653149  -0.3903857135920181 0.05117073961400299 0.9151481659527682  -0.3971830902240024 0.1193829805984433 0.9053071562643941  -0.3303865863609838 0.1762310744281708 0.9212785977193496  -0.291496241109452 0.168853084261413 0.9378662773165001  -0.4435466649864882 0.0667614368372431 0.8885166352012768  -0.4331960242012765 -0.0009856131691254536 0.8978136034375648  -0.3705423597092583 -0.005849645316175859 0.9266942489395367  -0.3803037225995689 0.2066534714426863 0.895331108189103  -0.4667972797622858 0.122751924327075 0.8722153019182861  -0.4342067913727607 0.1758454369826362 0.879974053366208  0.6390884334503222 -0.6400627378408292 0.4072232196890205  0.666518887785479 -0.635117680647199 0.3765591897421088  0.616461121925532 -0.6762693899435718 0.3871819241514353  0.6553860337843855 -0.6083174983779847 0.4282896418594887  0.6108617082632086 -0.6465588091932609 0.4368579828981626  0.6479006163417149 -0.6785085875343948 0.3383114111656388  0.6963588204558657 -0.63229850065909 0.3259076933499363  0.7149859933585505 -0.5932114762908479 0.3492079397989686  0.6906668786682657 -0.59310892695919 0.3939978299689588  0.5983452506407385 -0.7128707313970826 0.3457821673177633  0.5497682841638722 -0.7190251282279033 0.4036424539149939  0.5764549269807808 -0.6839902889497498 0.4299644308043538  -0.5805134935490159 -0.2973966705854144 0.7474906705592264  -0.6101183923582025 -0.3170811291404825 0.7170099781468678  -0.5516354204326032 -0.333289994298674 0.7559005907695229  -0.5943430652700376 -0.2518733729369446 0.7534450960811157  -0.5498015883949426 -0.2797118399838947 0.778101554251927  -0.6413564031118926 -0.342642380904813 0.6812245956812799  -0.6578586166234204 -0.2673827410012222 0.6958816495665374  -0.5965077108205823 -0.3838636966801667 0.6935514384220414  -0.5600554218584133 -0.3740335245820818 0.7271761684343092  -0.8855265555884368 0.455818370406726 0.001566026352199115  -0.8657089918700644 0.4889798827443658 0.03461448964878074  -0.8448133965114704 0.5284520383533291 -0.02594422912968568  -0.8819308407506612 0.4559444261897697 0.06444323686877693  -0.8840149772859209 0.4536750950848298 -0.0492054632895931  -0.9039891509116313 0.421681070537842 -0.002092262353905501  -0.9014398431835936 0.4227937311544486 0.03679049425006066  -0.844441374767871 0.5295815982897822 0.0216686916273871  -0.8454121640918405 0.5166432409946684 0.08357940929814996  -0.01232384854601306 0.2524040971345366 0.9661314554375071  -0.0651915556946501 0.3099452905837216 0.9438018162620798  -0.09704905853273944 0.2790133689783231 0.9524471537042174  -0.0206426413068453 0.3035862408532009 0.9484259739326913  -0.05514976289413435 0.2185092921674608 0.9705338957203962  -0.01239443258200638 0.1985346587911101 0.977357757231119  0.03892654550953478 0.2332097499113872 0.9688281882350473  0.03248575340430987 0.2866613310656007 0.9534677497986817  -0.6669666516265839 -0.7058012395313069 0.2058897598597125  -0.6226354362249336 -0.7497100397800389 0.2018725144323465  -0.6444364536968712 -0.7430337536966161 0.1583751984504091  -0.6057952065289457 -0.7459481874207479 0.2478521706612181  -0.6520928690571544 -0.7009619420919038 0.2695979766900914  -0.6892455611098818 -0.6703640225342831 0.248414434229673  -0.6957884411548392 -0.6980183397364996 0.1235640916656391  -0.7161771747636237 -0.6722664617349587 0.15522929570621  -0.7087701634854342 -0.6658841521666531 0.1997932624754093  -0.5945328567582595 -0.7813936898988518 0.1721465376332686  -0.5833890215500421 -0.774667405381762 0.2176434526955044  -0.7892862183240328 -0.02918670797133042 0.6047216776459904  -0.7721893460521003 0.02599766201830154 0.6258105857162728  -0.8007887972494734 0.03307635397712005 0.5904052867956499  -0.7648793977719148 -0.01848252876553773 0.6352788994136374  -0.8362944247880658 0.0006455897840734314 0.5467984845847786  -0.8087253838540267 -0.07740518120473666 0.5750867662272909  -0.771827446924388 -0.05680126105335995 0.6239910513937881  -0.7698083956339558 0.07854256537163651 0.6248580891386035  -0.7457069641973495 0.008854888203298241 0.6593721774175647  -0.8019738366591747 0.09689379697705414 0.5815892596475316  -0.8257550177201451 0.04186869394376688 0.5558767378353191  0.08776848749532827 -0.6290433181640469 -0.7658221726716201  0.1023891336469406 -0.5896128553431419 -0.7960978452365342  0.1691878021249268 -0.6104123792632767 -0.7713572846683691  0.04350080493184648 -0.6095800871865733 -0.7844419460804353  0.04887098012781153 -0.6581697250894174 -0.7442848309161406  0.08663585937212016 -0.6833732902251697 -0.7165322395564269  0.1246931364887756 -0.6541203045809196 -0.7395000129886071  -0.5635104663749577 -0.5303105873518772 -0.6211647976982537  -0.56656587520451 -0.4846173953850731 -0.6558334999274387  -0.5237837678089339 -0.5195054014067704 -0.6716966822093843  -0.6213402215585957 -0.4671743745388914 -0.6138498158494254  -0.5229516815729151 -0.5719987406754236 -0.6200354291767499  -0.580532435210944 -0.5613517802672555 -0.5731016359468888  -0.6227750063973875 -0.5099189464353157 -0.581071183629855  -0.5263511329905621 -0.4633380946113366 -0.7046675217176799  -0.5625287795622077 -0.4413155964426385 -0.6886070668928237  -0.6011200517665658 -0.4387448449009337 -0.6549168627663149  0.6726946025243006 0.7332347609267784 -0.03462084264945717  0.6926032526100196 0.7115470268515738 -0.06093368585564623  0.6474341858754353 0.7512581454991161 -0.07924518008636584  0.7152913438634918 0.6932591667058434 -0.03429006444807087  0.610513330988688 0.7841909134407797 -0.03495810378639125  0.7136867637144635 0.6965611388640627 0.02401227017641018  0.6781918113300746 0.7286019642707565 0.03671750698938295  0.6417531806463044 0.7592796409785827 0.02333709123769955  0.6753658738800407 0.7200403406095193 -0.113879440515718  0.7185838118730725 0.6838011600000908 -0.07162271238684434  0.7157590303039412 0.6802860097259654 -0.1100113196316714  0.6084477703871514 0.7818782442426384 -0.1015326539834142  0.62578866685287 0.7604901350742018 -0.1622255515029659  0.6578006353807209 0.7311273958976894 -0.1531051667697576  0.9211891080486054 -0.3569282150333338 -0.1184801198308594  0.9031142462253068 -0.4139198291714696 -0.0778312042505918  0.8925514511613241 -0.4184092582664398 -0.1532594067390495  0.9293533435647094 -0.3564364713364431 -0.04269927585665227  0.9111157042262147 -0.3513156285814998 -0.1857636347535728  0.9370731044855695 -0.3158990238998798 -0.1204446724897163  0.872945775894681 -0.4676822929046954 -0.1112644162636968  0.9041116839990935 -0.4213234201492317 -0.003361516082532674  0.9219102829362444 -0.3838205421887081 -0.01136260531809538  0.874890980586992 -0.4710851146249928 -0.04373345556274416  0.8857633487997221 -0.4000331390007349 -0.2100043706765468  0.8770378345161208 -0.454097459716553 -0.147895054559445  0.8606164521107171 -0.4664240440840637 -0.1813837066104163  0.8054853194548774 -0.5251256660694967 -0.2507134148339308  0.7920146267325859 -0.5620383248717269 -0.2115003607260101  0.7721689723245544 -0.5694868311490153 -0.2539561287202174  0.8284415511374024 -0.5089793661657078 -0.2012029182896835  0.7967960147391338 -0.5174033413349511 -0.29790127151
[...]
<PointData  Scalars="f_71-0"> 
<DataArray  type="Float64"  Name="f_71-0"  format="ascii">8.7436186233016514e+01  8.7567542111937072e+01  8.7640105668634661e+01  8.7204234751334425e+01  8.7471042047566200e+01  8.7289820718348508e+01  7.5690184678747499e+01  7.6202348454757683e+01  7.6156560599764404e+01  7.5200352650913260e+01  7.5315100511421676e+01  8.1247489417454219e+01  8.1366473484346386e+01  8.1629333687989643e+01  8.0593666975970535e+01  8.1746581443730093e+01  8.0813536008360046e+01  8.1497137461482836e+01  8.1861661629389701e+01  8.0441733071974056e+01  8.1267112741567772e+01  8.2039284822235473e+01  8.2124131522511234e+01  8.6428896654377752e+01  8.6262431972825894e+01  8.6636878951838014e+01  8.6114093141217452e+01  8.6924108685090332e+01  8.6248822221214269e+01  8.6829876669168144e+01  8.6679921850859429e+01  8.6422013926083878e+01  8.6110275310259752e+01  8.5960051824609437e+01  8.5692110332686411e+01  8.6691466278565471e+01  8.6961339332047189e+01  6.9060750303142072e+01  6.9734337021857783e+01  6.9096275435621280e+01  6.9639563478986773e+01  6.8425594541210188e+01  6.8658525463061096e+01  6.8890089782240707e+01  6.9803091119963469e+01  7.0749298237936245e+01  7.0777099730323869e+01  6.9233289444966132e+01  6.8619943673766500e+01  7.1725866734002381e+01  7.1575619767515917e+01  7.0347480884673871e+01  7.0096730283429267e+01  7.2167001051229263e+01  7.1462014337216971e+01  8.2771083009004030e+01  8.2881390004491877e+01  8.2408386707498309e+01  8.3068910266040163e+01  8.2646268464037917e+01  8.2447755970605741e+01  8.2908472026327843e+01  8.3271876100763933e+01  8.3261904922041126e+01  8.1972501807722850e+01  8.1849617994444898e+01  8.2258674210149735e+01  7.5324402833610307e+01  7.6182502771322689e+01  7.4797158072033938e+01  7.5455570046596719e+01  7.4474680307075516e+01  7.7170785235553012e+01  7.7081799118478742e+01  7.6282431391822684e+01  7.5256059239161630e+01  8.3263556271150179e+01  8.2662772170396323e+01  8.2696320609458780e+01  8.2747683918125574e+01  8.3622400831483091e+01  8.3671440125011770e+01  8.3328345041215442e+01  8.2368393627463874e+01  8.1982928903574148e+01  7.6151073259269040e+01  7.1883043169040363e+01  6.8835653644270820e+01  7.5691185413557264e+01  7.2440430278607380e+01  7.5843904218272698e+01  7.8038389761467982e+01  7.7996479942292211e+01  8.3888927211329587e+01  8.3041331942673239e+01  8.3965112043280683e+01  8.2170770911585663e+01  8.2840407921986809e+01  8.3778178441492798e+01  8.5541561611130390e+01  8.5618361191614270e+01  8.4827490281142389e+01  8.2773486134917206e+01  8.2053406023591734e+01  7.8859612302340480e+01  7.8318683623012802e+01  7.8918811946067109e+01  7.8291104946028270e+01  7.9807310814484609e+01  7.9506817640436353e+01  7.8583023357257161e+01  7.8154944415310112e+01  7.7801841152549144e+01  7.8816751121436127e+01  7.9462595952376347e+01  7.2525230598410985e+01  7.1154666024195123e+01  6.6337986759917655e+01  7.5243993434752923e+01  7.5165847802764162e+01  7.3085689887672345e+01  7.0043209591892762e+01  8.4763021572685687e+01  8.4756776216554698e+01  8.4217532248280023e+01  8.5579661663783369e+01  8.4210875433419830e+01  8.5068273395254465e+01  8.5698964639694225e+01  8.4220619824893944e+01  8.4661964715824453e+01  8.5203270483967756e+01  8.6006215501377881e+01  8.6293559902372778e+01  8.4984543293200275e+01  8.7226864050514735e+01  8.4494927153969826e+01  8.7753560219970808e+01  8.6759035573263759e+01  8.5679175311426746e+01  8.5292689798471841e+01  8.6901664744012521e+01  8.6336660167784970e+01  8.3928666257090697e+01  8.3736843677296221e+01  8.4475375769842628e+01  8.3570855428531118e+01  8.3457585404514887e+01  8.2695376662438292e+01  8.4362061866424455e+01  8.2882538416116731e+01  8.3923841998175462e+01  8.2630447930892728e+01  8.4024862835202441e+01  8.4383700271375858e+01  8.3152306478759158e+01  8.2216055401511085e+01  8.2436066202600685e+01  8.1942747512571330e+01  8.0629578563618850e+01  8.0683407503699939e+01  8.0111316770454309e+01  8.1299126841109697e+01  8.0191171846570342e+01  8.0869753337652185e+01  8.1304281348113605e+01  8.0304958341661901e+01  8.1119815760744771e+01  7.6339789916387417e+01  7.7284291156005182e+01  7.7252729379707745e+01  7.6490747784003020e+01  7.6192009554665773e+01  7.5620681788960326e+01  7.7894478480991651e+01  7.8185353207672605e+01  7.7664507322781034e+01  7.7281429084282365e+01  7.6440991035461380e+01  7.7457106498812692e+01  7.7949400156054310e+01  8.6294322280741767e+01  8.6466963326672598e+01  8.5396256588226350e+01  8.7208766983402995e+01  8.5390236655229486e+01  8.6953307772946971e+01  8.5816490041820174e+01  8.6568890921202623e+01  8.7534598163227827e+01  7.5072717029659273e+01  7.4153416252690420e+01  7.5742667325111128e+01  7.3442757454904921e+01  7.6218789526971264e+01  7.5882220770091720e+01  7.4317480207417518e+01  7.4828687733695901e+01  7.3132298804988707e+01  7.2385242650651605e+01  8.0837263413719811e+01  8.0126762649910745e+01  8.0026051821084877e+01  8.1831529986823028e+01  8.1495281135407822e+01  8.0878441748239496e+01  8.1208136359771316e+01  8.0887432706846624e+01  8.0830241767180155e+01  8.1368095105521675e+01  8.1476955284404056e+01  8.1621254283776267e+01  8.6188758381381533e+01  8.6078167699553802e+01  8.5846964679576473e+01  8.6438887692454145e+01  8.6155751099038298e+01  8.6513194152347751e+01  8.3486035953126077e+01  8.3164206130119226e+01  8.2904480454893189e+01  8.3716309964845166e+01  8.2801289891835708e+01  8.3113835576316745e+01  8.3849435357348980e+01  8.3932458939602853e+01  8.5977827297707265e+01  8.5616413516830505e+01  8.6449593334787608e+01  8.6222564814879561e+01  8.5779760061829279e+01  8.5527338317505581e+01  8.1675664530185486e+01  8.1924341201087671e+01  8.1944107892107027e+01  8.1761156028089772e+01  8.1513520924580661e+01  8.1459269550919643e+01  8.1316032185989116e+01  8.2245835381940651e+01  8.2116447524879604e+01  8.1928470552323631e+01  7.6766036459001484e+01  7.5404283786287294e+01  7.6208808122482353e+01  7.6963905350814741e+01  7.6589269781859997e+01  7.5902215094062484e+01  8.2009453341434636e+01  8.1399870713919711e+01  8.1801212679707632e+01  8.1668223614401626e+01  8.2322833451702735e+01  8.2593899001447070e+01  8.2328396381489640e+01  8.1288667194286191e+01  8.1155889571659159e+01  8.0894052416064326e+01  8.1416357996388626e+01  7.8748044789672264e+01  7.8790050263442993e+01  7.8555275210818991e+01  7.8882214307007033e+01  7.9022470375947350e+01  7.9023185389017797e+01  7.8903780545002604e+01  8.0319382201096204e+01  8.1502584016779082e+01  7.8944019324412366e+01  8.2550618578145460e+01  7.8227293136035058e+01  7.8397575891311519e+01  7.9174638471390836e+01  8.1441397325334833e+01  8.2280160484566991e+01  8.2359678312958209e+01  7.9982582851307356e+01  8.1735889531120577e+01  7.8157791766148165e+01  8.2673594061795228e+01  8.2788569628749926e+01  8.1505944366938550e+01  8.0659070695912590e+01  8.1538112519621151e+01  8.5331828907685235e+01  8.5277484910865269e+01  8.5514355305497588e+01  8.5063294262589849e+01  8.5751222137843840e+01  8.5708217835119996e+01  8.5127153979369496e+01  8.5037979845413162e+01  8.5470328376345719e+01  8.5212306034273752e+01  8.5697469561836030e+01  8.4931356833825603e+01  8.4456360196022473e+01  8.3939590306245975e+01  8.3313713065472683e+01  8.4875530958731588e+01  8.1504669386735117e+01  8.1163836219393659e+01  8.1054553024666518e+01  8.1698707457060110e+01  8.1405467344893353e+01  8.1891734493407611e+01  8.0571607210919339e+01  8.0607866557622131e+01  8.1094374411820922e+01  8.0682942005855310e+01  8.1162473205798250e+01  7.7525347210261828e+01  7.6958098455152310e+01  7.6880777707507264e+01  7.7680266718967303e+01  7.7529204914463193e+01  7.7953269697242646e+01  7.8106237450443999e+01  7.5922410565578303e+01  7.7112907088327390e+01  7.6032190729325009e+01  8.1304303526527789e+01  8.1548841104757997e+01  8.1013741584015591e+01  8.1769238424363948e+01  8.0825037458324019e+01  8.1921616407160229e+01  8.1902955681465684e+01  8.1328573773553515e+01  8.1811342863880796e+01  8.1906025350319496e+01  8.5562281732455929e+01  8.4613950874972403e+01  8.5408172341546816e+01  8.4876573274974888e+01  8.5702459997220473e+01  8.6344738102516573e+01  8.6256210047105441e+01  8.4271699143272429e+01  8.3811137306848252e+01  8.4426319670721526e+01  8.8454674239641207e+01  8.8199705628376563e+01  8.8839031799012361e+01  8.7672693558736327e+01  8.9252782182509478e+01  8.8367140413676879e+01  8.8412260981453443e+01  8.7744809576283785e+01  8.8953067618125971e+01  8.9390276620444183e+01  8.2615038688218220e+01  8.2113728630195340e+01  8.2121393672126899e+01  8.2730062720807652e+01  8.2451154559960798e+01  8.3218432212384357e+01  8.2918028755187706e+01  8.1657383234836274e+01  8.1461489901168179e+01  8.2238847565794288e+01  8.1309749904965145e+01  8.5633786152750417e+01  8.5286312572111257e+01  8.5049925342670804e+01  8.5535781205489073e+01  8.5457802793807772e+01  8.5735619985155424e+01  8.6032343981433257e+01  8.5833332949036517e+01  8.4742180614014686e+01  8.4967480671114075e+01  8.5235220732906640e+01  8.4974025039230810e+01  8.5196561169791607e+01  8.4754822041767639e+01  8.4051425100817070e+01  8.4022805324572062e+01  8.3696772304518007e+01  8.4445163359737194e+01  8.3499885890016714e+01  8.3580276928712365e+01  8.3925838717665584e+01  8.4465645029879667e+01  8.4309809644183673e+01  8.3423468238239906e+01  8.4156474934853136e+01  8.3603561493493459e+01  8.3260048464370215e+01  8.2187137750042979e+01  8.3000000000000000e+01  8.0159573709012946e+01  8.1733802983481411e+01  8.1832745709174119e+01  8.1191463420896156e+01  7.7123778424118910e+01  7.7623773202691567e+01  7.9125006272958274e+01  8.1198991059323433e+01  8.1276424106040352e+01  8.0368088422843741e+01  7.8974374524656227e+01  7.9428054230749325e+01  7.9684699073594516e+01  8.0146769580689082e+01  8.0951385973765412e+01  8.1735575532095098e+01  8.1158993473324074e+01  8.0880085829520013e+01  7.7207377383319354e+01  7.7578879106677434e+01  7.7961495398886285e+01  7.8633789357640339e+01  8.4891171863182507e+01  8.4262682910995977e+01  8.4530824071827709e+01  8.4217955454808177e+01  8.5267101801050742e+01  8.5574467324736304e+01  8.5033240803680116e+01  8.1289269956734330e+01  8.0887127460667131e+01  8.0718473275725117e+01  8.1407971743915226e+01  8.1095942682950010e+01  8.1979757814847105e+01  8.2040959323879036e+01  8.1852142607701666e+01  8.9355787512982033e+01  8.7757321204259810e+01  8.9735885031195878e+01  8.9318687054144817e+01  9.1650726905189003e+01  9.1243595057055387e+01  8.8935638861420998e+01  8.7279498527319021e+01  7.9290268792691151e+01  8.0150411271426080e+01  7.9867904719083498e+01  7.9230442455353398e+01  7.9125417987060217e+01  7.8394185848557768e+01  8.8539384769565771e+01  8.7512761094225851e+01  8.8360357003500994e+01  8.8956081729068231e+01  8.9719711718083389e+01  8.9203808418196175e+01  8.6821547229074397e+01  7.6422260948959675e+01  7.7975858904733286e+01  7.7505395635217440e+01  7.7311095094708023e+01  7.6487644985125982e+01  7.5794453386178944e+01  7.6203129048057249e+01  7.4747126798411969e+01  7.6368449834523332e+01  7.5852017988650957e+01  7.6188230709572949e+01  7.4848992509250905e+01  7.3072212587998052e+01  7.4202269741210443e+01  7.3710504996288861e+01  7.6759577894904197e+01  7.7144257894970139e+01  7.7396937562671624e+01  7.5779681848354528e+01  8.3125246476329011e+01  7.7611165222568104e+01  8.2704266630824904e+01  7.9336851022945325e+01  8.4204626011065741e+01  8.2672715707678236e+01  8.1830004182453592e+01  8.2234962108351709e+01  7.6365028747945118e+01  7.4922694592273544e+01  7.4166238593083548e+01  7.4672011210895008e+01  8.0418022398123085e+01  8.0107130008969293e+01  8.0672336939332411e+01  7.9507169589097231e+01  8.1218133539769596e+01  8.0847234431066170e+01  7.9994422281928195e+01  8.3204640502914344e+01  8.2115945639986762e+01  8.2421257278283719e+01  8.3157498256069132e+01  8.2982632004894299e+01  8.3979666442495642e+01  8.4313235600374355e+01  8.3829738886438534e+01  8.1725934621013977e+01  8.1167774615845943e+01  8.1840133948101382e+01  8.2646383603938219e+01  7.2468917749512627e+01  7.1007542373475331e+01  7.1594636402199527e+01  7.1898094968174846e+01  7.3004398959727254e+01  7.4003322520588384e+01  7.3509322670062758e+01  8.0070050279548269e+01  7.9758213756562824e+01  8.0206321200218497e+01  7.8369154784670272e+01  7.9838277489814089e+01  7.9195699750641623e+01  7.9853598019853820e+01  7.9776847201020956e+01  8.0343307000361563e+01  7.8567292645266960e+01  8.0286332071510657e+01  7.9872350242183998e+01  7.4246009199936694e+01  7.3518921118630601e+01  7.4346570322987688e+01  7.4374965926478581e+01  7.5090586711781071e+01  7.4685271332429963e+01  7.5811325030447179e+01  8.2200315030098068e+01  8.2392168513921533e+01  8.1739829881649527e+01  8.3096910001383790e+01  8.1430633598335177e+01  8.1585909625394066e+01  8.2693261443172119e+01  8.2237977146282446e+01  8.2150883841655912e+01  8.2953327595980170e+01  8.2679353672172695e+01  8.1634466495777161e+01  8.0941413112373723e+01  8.0772015678334370e+01  8.1239090060476215e+01  8.1536898473513276e+01  8.1809228168518899e+01  8.2339908366753619e+01  8.2436755556091626e+01  8.2702710266139462e+01  8.0424022059153756e+01  8.0589194856886820e+01  8.0263503187332773e+01  8.0631526063860292e+01  7.8679029189223911e+01  7.8964599971319814e+01  7.7993922082867385e+01  7.9288961511044107e+01  7.7767922241984039e+01  7.8454510821983291e+01  7.8958852321594847e+01  7.9762361745367684e+01  7.9750449045406981e+01  7.8926262877466058e+01  7.8425644688363434e+01  8.3185836571468627e+01  8.3744033991466040e+01  8.3605839556115342e+01  8.3689094802646068e+01  8.3354928931836795e+01  8.2945410209835998e+01  8.2660726192222967e+01  8.3189283454830203e+01  8.4050718587606966e+01  8.4137004180949518e+01  7.2214170726004198e+01  7.2716519418843518e+01  7.3453387548979904e+01  7.1860488734133099e+01  7.3009623131836364e+01  7.0875841301386245e+01  7.1759873082264676e+01  7.1149550302161487e+01  7.3209151873147718e+01  7.2614835158652980e+01  7.2058752996532647e+01  7.4303102744006750e+01  7.4401980941153894e+01  7.4959105167015892e+01  8.6489767709243822e+01  8.5722244149621162e+01  8.6339401987269426e+01  8.6447819313471314e+01  8.7173253233249881e+01  8.5588905977193889e+01  8.5097775495150003e+01  8.5621103209992924e+01  8.4997300205415286e+01  7.9303146450386421e+01  7.8501032845442381e+01  7.8259301001909179e+01  7.9850068537434225e+01  7.8036440260000660e+01  8.0283927130053229e+01  8.0116593441204557e+01  7.9354976784011669e+01  7.7605282177176306e+01  7.8865054701832037e+01  7.7592813142954427e+01  8.1132678624869584e+01  8.1389415720199565e+01  8.0333351060208969e+01  8.1673118264427217e+01  8.0068418655073444e+01  8.0784405684639879e+01  8.1489369021645231e+01  8.1439979451836408e+01  8.5811434919337131e+01  8.6399383252107327e+01  7.9640431628861990e+01  8.0009626974959033e+01  8.0032585013409175e+01  7.9331164601897385e+01  7.9639701259883381e+01  7.9143844895871823e+01  7.9693018749425832e+01  8.0226961820010388e+01  7.6010152932906564e+01  7.4534053050815388e+01  7.5207976669509677e+01  7.7130029290181454e+01  8.4623984860466578e+01  8.4225182653516597e+01  8.4939731949546029e+01  8.3907562592230377e+01  8.5355077554164723e+01  8.4915787696824779e+01  8.4142818482106691e+01  8.0508685077563356e+01  8.0275603297305352e+01  8.0661367010161172e+01  8.0017122658931200e+01  8.0277710879551137e+01  8.0774621873629528e+01  8.1036271654103871e+01  8.0423703118826694e+01  7.9899703352674138e+01  7.9754961854948291e+01  8.9016645597502290e+01  8.9357055272918686e+01  8.9336333885776909e+01  8.8762168314475886e+01  8.8822039098140294e+01  8.8634443689430725e+01  8.9917361443357422e+01  8.9819614808919610e+01  8.2596933588311884e+01  8.3396938009394859e+01  8.1404501856863092e+01  8.1591420890179180e+01  8.2032211990598498e+01  8.0841096834861148e+01  8.1835639022600461e+01  8.1545580922134633e+01  8.1133033829428726e+01  8.2026394923577769e+01  8.1223919805772752e+01  8.2155729115990013e+01  8.2435312898893173e+01  8.2038794075120194e+01  8.2590445639758229e+01  8.1921394374718574e+01  8.2673276801466542e+01  8.2331102863950790e+01  8.1933946078467599e+01  8.1729348786165900e+01  7.5752925679375466e+01  7.4558526992433073e+01  7.4994031630612128e+01  7.5294449163479754e+01  7.6000754756776288e+01  7.6813197272501412e+01  7.6166852127692394e+01  7.4898442733849407e+01  7.3822816370506644e+01  7.4660331851611787e+01  7.4014531151217611e+01  7.5943169661797398e+01  7.4879981982002718e+01  7.5616978207825710e+01  7.4007819677167291e+01  7.3498960835042965e+01  7.3004022388952492e+01  7.2717371585742413e+01  7.3157406337890166e+01  7.4778429256328010e+01  7.6008197794238669e+01  8.4128513782515128e+01  8.3638273557162435e+01  8.4107194817010296e+01  8.3808719514045123e+01  8.4567122822508367e+01  8.4613428956462656e+01  8.3137289569779568e+01  8.3470276267067234e+01  8.5644655056780707e+01  8.6056193970016650e+01  8.5865780788683537e+01  8.5886286719549133e+01  8.5541846144555720e+01  8.5228773262908362e+01  8.5594796000197604e+01  8.5209314388212022e+01  8.6151699528719433e+01  8.6585340635046023e+01  8.6139374048316824e+01  8.6443420102971714e+01  8.5788229251872323e+01  8.5494020904954652e+01  8.5123541060311169e+01  8.0408256221789117e+01  8.0759901184362477e+01  8.0413467270327942e+01  8.0552973415816368e+01  8.0025551155663706e+01  8.0932303813966996e+01  8.1066654444842982e+01  7.9872166807298143e+01  8.0212210176392361e+01  8.0396230177762106e+01  7.8675457322794884e+01  8.0059322244156846e+01  7.6750680172255670e+01  8.3999895595496966e+01  7.6176924990140236e+01  9.2000000000000000e+01  8.7386270221328815e+01  7.9268729795366667e+01  7.6852089816188794e+01  7.8684343222912645e+01  8.9293381333983646e+01  7.6394413328722507e+01  7.6000836578203732e+01  8.2308437851352821e+01  8.2717546427713430e+01  8.2447116656692828e+01  8.2622454469797972e+01  7.9511715173417997e+01  8.0318317517670465e+01  8.0492334750703833e+01  7.9493428544791414e+01  7.9769875606679122e+01  7.8675412170719483e+01  7.8923149387343898e+01  8.1185116200570207e+01  8.1258506647590210e+01  8.0204589221433764e+01  8.0925543306219822e+01  8.3252935709518596e+01  8.2823333760929856e+01  8.2463780613251572e+01  8.3696727338575158e+01  8.3591782537646068e+01  8.4180493608529048e+01  8.5069604178757174e+01  8.5352334739844238e+01  8.3831548133361693e+01  8.4156782766005449e+01  8.3235063136984763e+01  8.3487029570075549e+01  8.2929931808723595e+01  8.6085747376771010e+01  8.4316717129762750e+01  8.4956097622808059e+01  8.6379211962823092e+01  8.5539671551476701e+01  8.6078599154808771e+01  8.4657558831564984e+01  7.9140950485308679e+01  7.9431582260278702e+01  7.9163606003922808e+01  7.9490859293684679e+01  7.9287641952561515e+01  7.9293599454272922e+01  7.9056583070187330e+01  7.9408172637776346e+01  7.9723672634072500e+01  7.9924170522784749e+01  8.2973941938996887e+01  8.2786223373959672e+01  8.3384492098663188e+01  8.2429403180696383e+01  8.2988449677730628e+01  8.2198468875826137e+01  8.2903320199937141e+01  8.3519599235704206e+01  8.2783277411282100e+01  7.0636836619615920e+01  7.0792890445272150e+01  6.9758808807297143e+01  7.1524716749891397e+01  7.0510727907460364e+01  7.1388357544720648e+01  7.1411593455566191e+01  7.1335126301390261e+01  6.9983750186974305e+01  7.2127510580046177e+01  7.1482266071269407e+01  6.8905381208182732e+01  6.9807213521239035e+01  7.2658287770334866e+01  6.6553133229290296e+01  6.7145716315648912e+01  7.1300386493997323e+01  7.5173163855371044e+01  7.5590233533489936e+01  6.9308457639558341e+01  7.2679080572621615e+01  7.4523887649506747e+01  8.0919578786291950e+01  8.1601999481232298e+01  8.0684426634969441e+01  8.0807287530450594e+01  8.1040292135570525e+01  7.0126842518395875e+01  6.6473527368297724e+01  6.4908045599230533e+01  7.0900882456876289e+01  6.7733287084260937e+01  7.1389712949842064e+01  7.4302609029952976e+01  6.5703278415899305e+01  6.6654282896186700e+01  6.8131674000280569e+01  6.4397383819718