<?xml version="1.0"?>
<VTKFile type="UnstructuredGrid"  version="0.1"  >
<UnstructuredGrid>
<Piece  NumberOfPoints="97" NumberOfCells="190">
<Points>
<DataArray  type="Float64"  NumberOfComponents="3"  format="ascii">-0.2292282057469212 0.8017237235206827 0.5396676900959874  0.108544067302793 0.8988895162580426 0.4164545213951402  -0.1413186101477212 0.9416424653439848 0.2975927181453666  0.03968867169050777 0.7545815708600753 0.6462837012226068  -0.4273057319372779 0.892890351222756 0.1251196477897823  -0.4853393397134007 0.6608148594364528 0.5610551265393862  -0.1474419561548972 0.4423258684646914 0.8846517369293828  -0.7803664261701799 0.4748912232203195 -0.3897509047015111  -0.5665799309716311 0.5673951902968251 -0.5810107301566323  -0.6172133998483678 0.1543033499620919 -0.7715167498104597  -0.5156027661986625 0.8261382272768856 -0.1937222411583379  -0.9121272909931335 0.2280179184970063 -0.3242513856912239  -0.894723622313206 0.4304940031836959 -0.08215560656214356  -0.7006436453229382 0.7008783230365476 0.07684824221217057  -0.3678247640997201 0.4799657492879194 -0.7900428969967694  -0.3624477227999041 0.775860408701146 -0.5054179752798098  -0.1999821132374706 0.1483087281460526 -0.9644744680601287  -0.8769508476381067 -0.01714960267784213 -0.470035628558388  -0.7460751130210326 -0.2370215626247512 -0.610730051629893  -0.3315974345494567 -0.127857991004163 -0.930136764009084  -0.524953988901794 -0.3174142104161448 -0.783673765060624  -0.6749726717989324 -0.6750950774204632 0.2792514853764788  -0.3334189389412188 -0.9112068712800261 0.216304641723488  -0.5407101121706115 -0.6200639308086227 0.5542118084458545  -0.6940195411785253 -0.715500165334122 -0.0284215341024869  -0.8466393646541454 -0.4180749724076609 0.3128558520739755  -0.08520916920963351 -0.9879686841196869 -0.1129620496563222  0.0520216092269915 -0.9638185762679827 0.251990515784561  -0.4199556974849971 -0.8800091977768052 -0.1980643100586574  -0.1327176740505112 -0.7642737247665168 0.6276328563862036  0.003703293607898609 0.9965704028541496 0.05821938742551165  0.2552274414228819 0.9452985903272906 0.1825368305061146  0.4446605183011921 0.7415160373650416 0.4876397246896829  0.2248000696661507 -0.4829780905967994 0.8389604731727701  0.5357932577453476 -0.3610849596873907 0.7530457761617169  0.456288366900324 -0.05143473660732363 0.8824743094735321  0.324442842261525 -0.8111071056538129 0.4866642633922877  0.02617674287028072 -0.2885885794484754 0.9531699999639616  -0.04889882470749937 -0.5665678987125327 0.817964130833984  0.5943219915787478 -0.6570416728778877 0.4451179002392687  0.7632747282168668 -0.397969735809544 0.4964376557921617  0.7840329755266147 -0.02436044260179463 0.6114838512855382  0.5918332003253703 -0.7867889079316994 0.1577859321395407  0.793136423886591 -0.5547105093051514 0.2253494594389059  -0.6630016011137256 -0.2258826319312051 0.7035799438181984  -0.8197521652963253 -0.04373901096842705 0.5648455303245606  -0.6477707463784268 0.03663875461568722 0.753546011503258  -0.2529145376535192 -0.3759694708342813 0.8842137750236498  -0.4482761123046716 -0.1804457384922719 0.8720221135361332  -0.9437688160816378 -0.01600463692593451 0.3181778381942695  -0.7594087227212305 0.2248798454030602 0.5994411146711185  -0.9505662382470186 -0.290953816312306 -0.05861035841414185  0.7014201045537577 -0.4964099942302525 -0.505717483941026  0.3022001290265524 -0.3427293531507724 -0.8850533045071953  0.3277927241826031 -0.6618001373385043 -0.6725277237529534  0.6172133998483678 -0.1543033499620919 -0.7715167498104597  0.6041075320684692 -0.7404580890864516 -0.266315414370413  0.8325206351058974 -0.5361951115907255 -0.0861858757968319  0.8621177678107883 -0.2120490461856953 -0.4492921621789447  -0.04385164772402329 -0.6320963068368073 -0.7659619507607024  -0.07377063245710208 -0.2950825298284103 -0.9483307527854898  0.2458405197666685 0.03610841034423386 -0.9664319246365856  0.1491959889544256 -0.8792610442502165 -0.4500853732568753  -0.1094491983541786 0.6346278140166512 -0.7599393771149316  0.1170424508683703 0.4681698034734814 -0.8720900467884523  0.04084570680529123 0.8165366924035506 -0.5704529380305337  0.5581098810133682 0.2921917056091387 -0.7669806044714442  0.4283279684163534 0.6813489108205406 -0.5810102788883454  -0.9888317016606171 0.1131479145567094 -0.07222190992818615  -0.8848758258789081 0.3796513083924964 0.2449247966812774  -0.794019184649972 -0.4372262834357753 -0.4036395083245631  0.6562049820992204 0.3408904598788913 0.6706633936413027  0.9558869863691285 -0.2250857408096989 0.1664903586011166  0.9322399214109205 0.1698187545935754 0.3055760604918509  0.2786845735353731 0.3473542893938324 0.8899066238665363  0.0008856639434945144 0.007200844916425487 0.9995521275823739  0.9501854448804381 -0.2842747730105196 -0.1058310472858626  0.9761908613988917 -0.02376163081216506 -0.201494092742923  -0.2055742924207356 -0.8413073172667692 -0.4870204680083959  -0.3229006548320791 -0.5336149582001007 -0.7748570620743256  0.8250516254373921 0.1033376810828337 -0.5442975201195649  0.2996632146944914 0.6077885270215519 0.7252649046414688  -0.4230334042477404 0.09385298498107814 0.8978547936099632  0.3297597854225943 -0.926599300546295 0.1533745326712114  0.3289223940949129 -0.929075492424432 -0.1436810991162807  -0.7217181625873161 0.4956921459213093 0.4710861790406964  -0.5104172655645767 0.3881129498032637 0.7580025420845747  -0.655073219574541 -0.6815192139209039 -0.3177227392216622  -0.5124971922243997 -0.6320576537537844 -0.5698979537050092  0.7912623414227565 0.4518660212274315 0.393800824577174  0.9424601367090208 0.317699901296518 -0.04238426748011424  0.7730989782436255 0.6183556774180097 0.1124465385027909  -0.1982640524275052 0.9662892738912717 -0.1408792482104237  0.2346764285621874 0.9387057142487498 -0.2298151858609667  0.7969978488448543 0.4600800151654959 -0.3755984204049162  0.5956145488100844 0.7662477239524388 -0.2144792860633244  0.5375786324151174 0.830944702928295 0.09138605115780439  </DataArray>
</Points>
<Cells>
<DataArray  type="UInt32"  Name="connectivity"  format="ascii">0 1 2  0 1 3  0 2 4  0 4 5  0 5 6  0 3 6  7 8 9  7 8 10  7 9 11  7 11 12  7 12 13  7 10 13  8 9 14  8 14 15  8 10 15  9 14 16  9 11 17  9 17 18  9 16 19  9 19 20  9 18 20  21 22 23  21 22 24  21 23 25  21 24 25  22 26 27  22 26 28  22 27 29  22 23 29  22 24 28  1 2 30  1 30 31  1 31 32  1 3 32  2 4 30  33 34 35  33 34 36  33 35 37  33 37 38  33 36 38  34 39 40  34 36 39  34 35 41  34 40 41  39 42 43  36 39 42  39 40 43  25 44 45  44 45 46  23 25 44  23 44 47  44 47 48  44 46 48  25 45 49  45 49 50  45 46 50  25 49 51  24 25 51  52 53 54  52 53 55  52 54 56  52 57 58  52 56 57  52 55 58  53 54 59  53 59 60  53 55 61  53 60 61  54 59 62  54 56 62  14 63 64  14 15 63  14 16 64  63 64 65  15 63 65  16 61 64  64 66 67  61 64 66  64 65 67  17 51 68  49 51 68  11 17 68  11 12 68  12 68 69  49 68 69  17 51 70  24 51 70  17 18 70  35 41 71  41 72 73  40 41 72  41 71 73  35 74 75  35 71 74  35 37 75  57 72 76  43 57 72  57 58 76  42 56 57  42 43 57  72 76 77  40 43 72  72 73 77  58 76 77  12 13 69  59 62 78  59 60 79  59 78 79  55 58 80  58 77 80  16 19 60  16 60 61  6 74 75  71 74 81  6 74 81  37 47 75  47 48 75  48 75 82  6 75 82  26 27 83  26 62 84  26 83 84  26 62 78  26 28 78  27 36 83  27 29 36  23 29 47  5 85 86  5 13 85  50 85 86  50 69 85  13 69 85  5 6 86  4 5 13  46 50 86  46 82 86  6 82 86  70 87 88  28 87 88  24 70 87  24 28 87  37 38 47  56 62 84  42 56 84  42 83 84  49 50 69  71 73 89  32 71 89  73 89 90  32 89 91  89 90 91  32 71 81  36 42 83  10 15 92  4 10 92  4 10 13  15 65 92  65 92 93  30 92 93  4 30 92  55 66 80  55 61 66  66 80 94  66 67 94  77 80 94  65 67 93  67 93 95  67 94 95  19 20 79  20 79 88  18 20 88  30 31 93  73 77 90  19 60 79  29 38 47  29 36 38  93 95 96  31 93 96  91 94 95  91 95 96  18 70 88  28 78 88  78 79 88  31 32 96  3 32 81  32 91 96  3 6 81  46 48 82  90 91 94  77 90 94  </DataArray>
<DataArray  type="UInt32"  Name="offsets"  format="ascii">3 6 9 12 15 18 21 24 27 30 33 36 39 42 45 48 51 54 57 60 63 66 69 72 75 78 81 84 87 90 93 96 99 102 105 108 111 114 117 120 123 126 129 132 135 138 141 144 147 150 153 156 159 162 165 168 171 174 177 180 183 186 189 192 195 198 201 204 207 210 213 216 219 222 225 228 231 234 237 240 243 246 249 252 255 258 261 264 267 270 273 276 279 282 285 288 291 294 297 300 303 306 309 312 315 318 321 324 327 330 333 336 339 342 345 348 351 354 357 360 363 366 369 372 375 378 381 384 387 390 393 396 399 402 405 408 411 414 417 420 423 426 429 432 435 438 441 444 447 450 453 456 459 462 465 468 471 474 477 480 483 486 489 492 495 498 501 504 507 510 513 516 519 522 525 528 531 534 537 540 543 546 549 552 555 558 561 564 567 570 </DataArray>
<DataArray  type="UInt8"  Name="types"  format="ascii">5 5 5 5 5 5 5 5 5 5 5 5 5 5 5 5 5 5 5 5 5 5 5 5 5 5 5 5 5 5 5 5 5 5 5 5 5 5 5 5 5 5 5 5 5 5 5 5 5 5 5 5 5 5 5 5 5 5 5 5 5 5 5 5 5 5 5 5 5 5 5 5 5 5 5 5 5 5 5 5 5 5 5 5 5 5 5 5 5 5 5 5 5 5 5 5 5 5 5 5 5 5 5 5 5 5 5 5 5 5 5 5 5 5 5 5 5 5 5 5 5 5 5 5 5 5 5 5 5 5 5 5 5 5 5 5 5 5 5 5 5 5 5 5 5 5 5 5 5 5 5 5 5 5 5 5 5 5 5 5 5 5 5 5 5 5 5 5 5 5 5 5 5 5 5 5 5 5 5 5 5 5 5 5 5 5 5 5 5 5 </DataArray>
</Cells>
<PointData  Scalars="f_48"> 
<DataArray  type="Float64"  Name="f_48"  format="ascii">6.9442476321171426e+01  7.8559754176099531e+01  7.4090529268548977e+01  7.4292887116128341e+01  7.8260694905361618e+01  7.7470367780439133e+01  5.0999949979345544e+01  8.6016356555456227e+01  8.4890757648314278e+01  8.6217064853121357e+01  8.2226700520999728e+01  8.7789676495691509e+01  8.6113913732803070e+01  8.2855138174601890e+01  8.4726197406104220e+01  8.1994569665722182e+01  8.2999918593836867e+01  8.8277899432528784e+01  8.7721103809457773e+01  8.5395858300769106e+01  8.6279465788189697e+01  8.4083382879214611e+01  8.1828520502562299e+01  8.0106688529290551e+01  8.5768791736672057e+01  8.6385965300955974e+01  8.6680646871978183e+01  9.1999909766662569e+01  8.4396507349842750e+01  8.1203021384965226e+01  7.7697703462972328e+01  8.6875143119911328e+01  8.7073095275701732e+01  8.3370607376323647e+01  8.3857899358598701e+01  8.2797018983678669e+01  8.3782794395057820e+01  8.2999918593836867e+01  8.0799972146880194e+01  8.3848750239125494e+01  8.5606801570665169e+01  8.6429829683603614e+01  8.2747641197752898e+01  8.4797309794577103e+01  8.2981701803771472e+01  8.3670652158516077e+01  8.0746790843883929e+01  5.3999947036954111e+01  7.6063388728143551e+01  8.5825992973228111e+01  8.2020498126101131e+01  1.0599989603550250e+02  7.8709879254389165e+01  5.0999949979345544e+01  7.1609782827038444e+01  7.3018519702028044e+01  7.9666716848440316e+01  8.2988279561838993e+01  8.0596287195347742e+01  8.4642565835351078e+01  8.3874719308507210e+01  5.3999947036954111e+01  8.0156900272306530e+01  7.7773432416138121e+01  7.0620591429020152e+01  7.6398707148231239e+01  7.4131878058158591e+01  7.7750708752310857e+01  8.9999911728256833e+01  8.4388354693655899e+01  8.8866813416527606e+01  8.6971403852037653e+01  8.9999911728256833e+01  8.8101585143559873e+01  8.3623348399957763e+01  7.4017550873028881e+01  8.4942970254528390e+01  8.4412719388281914e+01  8.6015578515325004e+01  8.5403315731145810e+01  7.9585002080157011e+01  8.4265398429514207e+01  7.7431830356334601e+01  8.2662722873272784e+01  8.0949063290636460e+01  8.1536087724635578e+01  7.8174225685746421e+01  8.6561204894420243e+01  8.5756418788831056e+01  8.9880421446808271e+01  8.6744438752681717e+01  1.0599989603550250e+02  7.7233363002772322e+01  9.1999909766662569e+01  8.1834225472254687e+01  8.4868569674885265e+01  8.8803619551748199e+01  </DataArray> 
</PointData> 
</Piece>
</UnstructuredGrid>
</VTKFile>